Date_file to box block, parametrs: n_types 1 h2 216 rho 0.6 T 2000

864 atoms
2 atom types

0 20.147802 xlo xhi
0 20.147802 ylo yhi
0 20.147802 zlo zhi

Masses

1 1.008000
2 0.005000

Atoms

   1    1 1.000000    0 0.000000 14.0087 5.5467 15.6342
   2    1 1.000000    0 0.000000 14.1983 6.5420 16.6023
   3    2 0.000000    1 1.860000 14.1035 6.0443 16.1182
   4    2 0.000000   -1 1.860000 14.1035 6.0443 16.1182
   5    1 1.000000    0 0.000000 9.5770 4.0211 1.5208
   6    1 1.000000    0 0.000000 10.5708 4.0380 2.5088
   7    2 0.000000    1 1.860000 10.0739 4.0296 2.0148
   8    2 0.000000   -1 1.860000 10.0739 4.0296 2.0148
   9    1 1.000000    0 0.000000 17.6438 10.0122 15.6204
  10    1 1.000000    0 0.000000 18.6223 10.1356 16.6161
  11    2 0.000000    1 1.860000 18.1330 10.0739 16.1182
  12    2 0.000000   -1 1.860000 18.1330 10.0739 16.1182
  13    1 1.000000    0 0.000000 7.6948 9.4759 18.1063
  14    1 1.000000    0 0.000000 8.4234 10.6719 18.1597
  15    2 0.000000    1 1.860000 8.0591 10.0739 18.1330
  16    2 0.000000   -1 1.860000 8.0591 10.0739 18.1330
  17    1 1.000000    0 0.000000 3.4832 7.9005 5.6353
  18    1 1.000000    0 0.000000 4.5759 8.2177 6.4534
  19    2 0.000000    1 1.860000 4.0296 8.0591 6.0443
  20    2 0.000000   -1 1.860000 4.0296 8.0591 6.0443
  21    1 1.000000    0 0.000000 13.9103 1.4633 13.7167
  22    1 1.000000    0 0.000000 14.2966 2.5662 14.4902
  23    2 0.000000    1 1.860000 14.1035 2.0148 14.1035
  24    2 0.000000   -1 1.860000 14.1035 2.0148 14.1035
  25    1 1.000000    0 0.000000 4.0023 15.4489 13.8978
  26    1 1.000000    0 0.000000 4.0568 16.7875 14.3091
  27    2 0.000000    1 1.860000 4.0296 16.1182 14.1035
  28    2 0.000000   -1 1.860000 4.0296 16.1182 14.1035
  29    1 1.000000    0 0.000000 13.4798 7.8551 11.8429
  30    1 1.000000    0 0.000000 14.7271 8.2632 12.3344
  31    2 0.000000    1 1.860000 14.1035 8.0591 12.0887
  32    2 0.000000   -1 1.860000 14.1035 8.0591 12.0887
  33    1 1.000000    0 0.000000 3.6662 7.7124 3.5409
  34    1 1.000000    0 0.000000 4.3929 8.4058 4.5182
  35    2 0.000000    1 1.860000 4.0296 8.0591 4.0296
  36    2 0.000000   -1 1.860000 4.0296 8.0591 4.0296
  37    1 1.000000    0 0.000000 7.3845 8.0532 7.8698
  38    1 1.000000    0 0.000000 8.7338 8.0651 8.2484
  39    2 0.000000    1 1.860000 8.0591 8.0591 8.0591
  40    2 0.000000   -1 1.860000 8.0591 8.0591 8.0591
  41    1 1.000000    0 0.000000 9.8584 9.8673 15.4843
  42    1 1.000000    0 0.000000 10.2894 10.2805 16.7522
  43    2 0.000000    1 1.860000 10.0739 10.0739 16.1182
  44    2 0.000000   -1 1.860000 10.0739 10.0739 16.1182
  45    1 1.000000    0 0.000000 1.5353 13.7585 13.7265
  46    1 1.000000    0 0.000000 2.4943 14.4484 14.4804
  47    2 0.000000    1 1.860000 2.0148 14.1035 14.1035
  48    2 0.000000   -1 1.860000 2.0148 14.1035 14.1035
  49    1 1.000000    0 0.000000 1.6014 11.6355 5.7056
  50    1 1.000000    0 0.000000 2.4282 12.5418 6.3831
  51    2 0.000000    1 1.860000 2.0148 12.0887 6.0443
  52    2 0.000000   -1 1.860000 2.0148 12.0887 6.0443
  53    1 1.000000    0 0.000000 15.7150 13.8478 15.6054
  54    1 1.000000    0 0.000000 16.5215 14.3592 16.6311
  55    2 0.000000    1 1.860000 16.1182 14.1035 16.1182
  56    2 0.000000   -1 1.860000 16.1182 14.1035 16.1182
  57    1 1.000000    0 0.000000 1.8989 13.5775 11.6405
  58    1 1.000000    0 0.000000 2.1307 14.6295 12.5369
  59    2 0.000000    1 1.860000 2.0148 14.1035 12.0887
  60    2 0.000000   -1 1.860000 2.0148 14.1035 12.0887
  61    1 1.000000    0 0.000000 9.6738 14.0335 3.4586
  62    1 1.000000    0 0.000000 10.4740 14.1734 4.6005
  63    2 0.000000    1 1.860000 10.0739 14.1035 4.0296
  64    2 0.000000   -1 1.860000 10.0739 14.1035 4.0296
  65    1 1.000000    0 0.000000 9.5729 14.0706 5.5556
  66    1 1.000000    0 0.000000 10.5749 14.1363 6.5331
  67    2 0.000000    1 1.860000 10.0739 14.1035 6.0443
  68    2 0.000000   -1 1.860000 10.0739 14.1035 6.0443
  69    1 1.000000    0 0.000000 10.0302 9.5974 17.6212
  70    1 1.000000    0 0.000000 10.1176 10.5504 18.6449
  71    2 0.000000    1 1.860000 10.0739 10.0739 18.1330
  72    2 0.000000   -1 1.860000 10.0739 10.0739 18.1330
  73    1 1.000000    0 0.000000 9.5196 18.0679 1.5911
  74    1 1.000000    0 0.000000 10.6282 18.1982 2.4384
  75    2 0.000000    1 1.860000 10.0739 18.1330 2.0148
  76    2 0.000000   -1 1.860000 10.0739 18.1330 2.0148
  77    1 1.000000    0 0.000000 17.9830 15.6281 11.6109
  78    1 1.000000    0 0.000000 18.2831 16.6083 12.5665
  79    2 0.000000    1 1.860000 18.1330 16.1182 12.0887
  80    2 0.000000   -1 1.860000 18.1330 16.1182 12.0887
  81    1 1.000000    0 0.000000 5.9053 5.5441 13.6329
  82    1 1.000000    0 0.000000 6.1834 6.5446 14.5740
  83    2 0.000000    1 1.860000 6.0443 6.0443 14.1035
  84    2 0.000000   -1 1.860000 6.0443 6.0443 14.1035
  85    1 1.000000    0 0.000000 10.0171 13.6273 13.5925
  86    1 1.000000    0 0.000000 10.1307 14.5796 14.6144
  87    2 0.000000    1 1.860000 10.0739 14.1035 14.1035
  88    2 0.000000   -1 1.860000 10.0739 14.1035 14.1035
  89    1 1.000000    0 0.000000 1.7241 5.8120 17.5393
  90    1 1.000000    0 0.000000 2.3055 6.2767 18.7267
  91    2 0.000000    1 1.860000 2.0148 6.0443 18.1330
  92    2 0.000000   -1 1.860000 2.0148 6.0443 18.1330
  93    1 1.000000    0 0.000000 15.7269 7.5150 13.8991
  94    1 1.000000    0 0.000000 16.5096 8.6032 14.3078
  95    2 0.000000    1 1.860000 16.1182 8.0591 14.1035
  96    2 0.000000   -1 1.860000 16.1182 8.0591 14.1035
  97    1 1.000000    0 0.000000 1.7504 15.6540 5.5909
  98    1 1.000000    0 0.000000 2.2792 16.5824 6.4978
  99    2 0.000000    1 1.860000 2.0148 16.1182 6.0443
 100    2 0.000000   -1 1.860000 2.0148 16.1182 6.0443
 101    1 1.000000    0 0.000000 9.9897 16.1169 15.4226
 102    1 1.000000    0 0.000000 10.1581 16.1196 16.8139
 103    2 0.000000    1 1.860000 10.0739 16.1182 16.1182
 104    2 0.000000   -1 1.860000 10.0739 16.1182 16.1182
 105    1 1.000000    0 0.000000 15.8411 5.6201 1.5308
 106    1 1.000000    0 0.000000 16.3954 6.4686 2.4987
 107    2 0.000000    1 1.860000 16.1182 6.0443 2.0148
 108    2 0.000000   -1 1.860000 16.1182 6.0443 2.0148
 109    1 1.000000    0 0.000000 11.9947 7.5943 13.5876
 110    1 1.000000    0 0.000000 12.1826 8.5240 14.6193
 111    2 0.000000    1 1.860000 12.0887 8.0591 14.1035
 112    2 0.000000   -1 1.860000 12.0887 8.0591 14.1035
 113    1 1.000000    0 0.000000 15.6123 15.7576 15.7942
 114    1 1.000000    0 0.000000 16.6242 16.4789 16.4422
 115    2 0.000000    1 1.860000 16.1182 16.1182 16.1182
 116    2 0.000000   -1 1.860000 16.1182 16.1182 16.1182
 117    1 1.000000    0 0.000000 11.5949 7.6976 15.7770
 118    1 1.000000    0 0.000000 12.5824 8.4207 16.4595
 119    2 0.000000    1 1.860000 12.0887 8.0591 16.1182
 120    2 0.000000   -1 1.860000 12.0887 8.0591 16.1182
 121    1 1.000000    0 0.000000 1.4537 9.7574 15.8425
 122    1 1.000000    0 0.000000 2.5759 10.3904 16.3940
 123    2 0.000000    1 1.860000 2.0148 10.0739 16.1182
 124    2 0.000000   -1 1.860000 2.0148 10.0739 16.1182
 125    1 1.000000    0 0.000000 9.8883 15.4426 6.0414
 126    1 1.000000    0 0.000000 10.2595 16.7939 6.0473
 127    2 0.000000    1 1.860000 10.0739 16.1182 6.0443
 128    2 0.000000   -1 1.860000 10.0739 16.1182 6.0443
 129    1 1.000000    0 0.000000 12.0547 17.5311 7.7020
 130    1 1.000000    0 0.000000 12.1227 18.7350 8.4162
 131    2 0.000000    1 1.860000 12.0887 18.1330 8.0591
 132    2 0.000000   -1 1.860000 12.0887 18.1330 8.0591
 133    1 1.000000    0 0.000000 10.0606 9.3847 3.9038
 134    1 1.000000    0 0.000000 10.0872 10.7631 4.1554
 135    2 0.000000    1 1.860000 10.0739 10.0739 4.0296
 136    2 0.000000   -1 1.860000 10.0739 10.0739 4.0296
 137    1 1.000000    0 0.000000 1.6357 17.7203 15.6976
 138    1 1.000000    0 0.000000 2.3939 18.5458 16.5389
 139    2 0.000000    1 1.860000 2.0148 18.1330 16.1182
 140    2 0.000000   -1 1.860000 2.0148 18.1330 16.1182
 141    1 1.000000    0 0.000000 7.9425 15.9268 11.4248
 142    1 1.000000    0 0.000000 8.1757 16.3097 12.7526
 143    2 0.000000    1 1.860000 8.0591 16.1182 12.0887
 144    2 0.000000   -1 1.860000 8.0591 16.1182 12.0887
 145    1 1.000000    0 0.000000 15.9145 1.4931 3.6084
 146    1 1.000000    0 0.000000 16.3219 2.5365 4.4507
 147    2 0.000000    1 1.860000 16.1182 2.0148 4.0296
 148    2 0.000000   -1 1.860000 16.1182 2.0148 4.0296
 149    1 1.000000    0 0.000000 13.5505 13.7173 7.8690
 150    1 1.000000    0 0.000000 14.6564 14.4896 8.2492
 151    2 0.000000    1 1.860000 14.1035 14.1035 8.0591
 152    2 0.000000   -1 1.860000 14.1035 14.1035 8.0591
 153    1 1.000000    0 0.000000 7.4470 10.0598 9.7331
 154    1 1.000000    0 0.000000 8.6712 10.0880 10.4147
 155    2 0.000000    1 1.860000 8.0591 10.0739 10.0739
 156    2 0.000000   -1 1.860000 8.0591 10.0739 10.0739
 157    1 1.000000    0 0.000000 3.6616 9.5127 11.8872
 158    1 1.000000    0 0.000000 4.3976 10.6351 12.2902
 159    2 0.000000    1 1.860000 4.0296 10.0739 12.0887
 160    2 0.000000   -1 1.860000 4.0296 10.0739 12.0887
 161    1 1.000000    0 0.000000 5.6071 17.8738 9.5916
 162    1 1.000000    0 0.000000 6.4816 18.3923 10.5562
 163    2 0.000000    1 1.860000 6.0443 18.1330 10.0739
 164    2 0.000000   -1 1.860000 6.0443 18.1330 10.0739
 165    1 1.000000    0 0.000000 16.0555 11.5191 11.6854
 166    1 1.000000    0 0.000000 16.1810 12.6583 12.4920
 167    2 0.000000    1 1.860000 16.1182 12.0887 12.0887
 168    2 0.000000   -1 1.860000 16.1182 12.0887 12.0887
 169    1 1.000000    0 0.000000 15.7539 15.7846 7.5622
 170    1 1.000000    0 0.000000 16.4826 16.4519 8.5560
 171    2 0.000000    1 1.860000 16.1182 16.1182 8.0591
 172    2 0.000000   -1 1.860000 16.1182 16.1182 8.0591
 173    1 1.000000    0 0.000000 1.8046 5.7818 9.4592
 174    1 1.000000    0 0.000000 2.2249 6.3069 10.6886
 175    2 0.000000    1 1.860000 2.0148 6.0443 10.0739
 176    2 0.000000   -1 1.860000 2.0148 6.0443 10.0739
 177    1 1.000000    0 0.000000 11.4322 1.9335 1.7837
 178    1 1.000000    0 0.000000 12.7452 2.0960 2.2459
 179    2 0.000000    1 1.860000 12.0887 2.0148 2.0148
 180    2 0.000000   -1 1.860000 12.0887 2.0148 2.0148
 181    1 1.000000    0 0.000000 1.6357 6.0175 11.4999
 182    1 1.000000    0 0.000000 2.3938 6.0712 12.6774
 183    2 0.000000    1 1.860000 2.0148 6.0443 12.0887
 184    2 0.000000   -1 1.860000 2.0148 6.0443 12.0887
 185    1 1.000000    0 0.000000 5.6089 1.8098 3.5203
 186    1 1.000000    0 0.000000 6.4798 2.2197 4.5389
 187    2 0.000000    1 1.860000 6.0443 2.0148 4.0296
 188    2 0.000000   -1 1.860000 6.0443 2.0148 4.0296
 189    1 1.000000    0 0.000000 5.6495 3.5091 3.7762
 190    1 1.000000    0 0.000000 6.4392 4.5500 4.2829
 191    2 0.000000    1 1.860000 6.0443 4.0296 4.0296
 192    2 0.000000   -1 1.860000 6.0443 4.0296 4.0296
 193    1 1.000000    0 0.000000 5.5526 13.6645 17.8955
 194    1 1.000000    0 0.000000 6.5361 14.5425 18.3705
 195    2 0.000000    1 1.860000 6.0443 14.1035 18.1330
 196    2 0.000000   -1 1.860000 6.0443 14.1035 18.1330
 197    1 1.000000    0 0.000000 5.4599 15.7424 16.0278
 198    1 1.000000    0 0.000000 6.6288 16.4941 16.2087
 199    2 0.000000    1 1.860000 6.0443 16.1182 16.1182
 200    2 0.000000   -1 1.860000 6.0443 16.1182 16.1182
 201    1 1.000000    0 0.000000 3.9179 5.3898 5.8205
 202    1 1.000000    0 0.000000 4.1412 6.6989 6.2681
 203    2 0.000000    1 1.860000 4.0296 6.0443 6.0443
 204    2 0.000000   -1 1.860000 4.0296 6.0443 6.0443
 205    1 1.000000    0 0.000000 17.5350 17.8397 5.8268
 206    1 1.000000    0 0.000000 18.7310 18.4264 6.2619
 207    2 0.000000    1 1.860000 18.1330 18.1330 6.0443
 208    2 0.000000   -1 1.860000 18.1330 18.1330 6.0443
 209    1 1.000000    0 0.000000 13.7199 5.6252 5.6343
 210    1 1.000000    0 0.000000 14.4871 6.4635 6.4544
 211    2 0.000000    1 1.860000 14.1035 6.0443 6.0443
 212    2 0.000000   -1 1.860000 14.1035 6.0443 6.0443
 213    1 1.000000    0 0.000000 9.8682 5.6017 5.5416
 214    1 1.000000    0 0.000000 10.2796 6.4870 6.5471
 215    2 0.000000    1 1.860000 10.0739 6.0443 6.0443
 216    2 0.000000   -1 1.860000 10.0739 6.0443 6.0443
 217    1 1.000000    0 0.000000 7.7459 7.4651 9.8738
 218    1 1.000000    0 0.000000 8.3723 8.6532 10.2740
 219    2 0.000000    1 1.860000 8.0591 8.0591 10.0739
 220    2 0.000000   -1 1.860000 8.0591 8.0591 10.0739
 221    1 1.000000    0 0.000000 11.5358 1.9007 9.6588
 222    1 1.000000    0 0.000000 12.6415 2.1289 10.4890
 223    2 0.000000    1 1.860000 12.0887 2.0148 10.0739
 224    2 0.000000   -1 1.860000 12.0887 2.0148 10.0739
 225    1 1.000000    0 0.000000 11.4844 13.9315 13.7931
 226    1 1.000000    0 0.000000 12.6929 14.2754 14.4138
 227    2 0.000000    1 1.860000 12.0887 14.1035 14.1035
 228    2 0.000000   -1 1.860000 12.0887 14.1035 14.1035
 229    1 1.000000    0 0.000000 17.7078 11.7430 13.6668
 230    1 1.000000    0 0.000000 18.5583 12.4343 14.5401
 231    2 0.000000    1 1.860000 18.1330 12.0887 14.1035
 232    2 0.000000   -1 1.860000 18.1330 12.0887 14.1035
 233    1 1.000000    0 0.000000 5.6322 5.6586 3.6144
 234    1 1.000000    0 0.000000 6.4565 6.4301 4.4447
 235    2 0.000000    1 1.860000 6.0443 6.0443 4.0296
 236    2 0.000000   -1 1.860000 6.0443 6.0443 4.0296
 237    1 1.000000    0 0.000000 17.8903 3.4589 11.7625
 238    1 1.000000    0 0.000000 18.3758 4.6003 12.4148
 239    2 0.000000    1 1.860000 18.1330 4.0296 12.0887
 240    2 0.000000   -1 1.860000 18.1330 4.0296 12.0887
 241    1 1.000000    0 0.000000 17.6922 1.6233 15.7395
 242    1 1.000000    0 0.000000 18.5738 2.4063 16.4970
 243    2 0.000000    1 1.860000 18.1330 2.0148 16.1182
 244    2 0.000000   -1 1.860000 18.1330 2.0148 16.1182
 245    1 1.000000    0 0.000000 3.5913 7.8684 11.5762
 246    1 1.000000    0 0.000000 4.4678 8.2498 12.6011
 247    2 0.000000    1 1.860000 4.0296 8.0591 12.0887
 248    2 0.000000   -1 1.860000 4.0296 8.0591 12.0887
 249    1 1.000000    0 0.000000 14.0681 5.3459 1.9707
 250    1 1.000000    0 0.000000 14.1389 6.7428 2.0589
 251    2 0.000000    1 1.860000 14.1035 6.0443 2.0148
 252    2 0.000000   -1 1.860000 14.1035 6.0443 2.0148
 253    1 1.000000    0 0.000000 3.5567 17.7652 13.7401
 254    1 1.000000    0 0.000000 4.5025 18.5009 14.4668
 255    2 0.000000    1 1.860000 4.0296 18.1330 14.1035
 256    2 0.000000   -1 1.860000 4.0296 18.1330 14.1035
 257    1 1.000000    0 0.000000 3.7409 15.9813 7.4355
 258    1 1.000000    0 0.000000 4.3182 16.2551 8.6828
 259    2 0.000000    1 1.860000 4.0296 16.1182 8.0591
 260    2 0.000000   -1 1.860000 4.0296 16.1182 8.0591
 261    1 1.000000    0 0.000000 3.5615 17.6358 5.8873
 262    1 1.000000    0 0.000000 4.4976 18.6303 6.2014
 263    2 0.000000    1 1.860000 4.0296 18.1330 6.0443
 264    2 0.000000   -1 1.860000 4.0296 18.1330 6.0443
 265    1 1.000000    0 0.000000 1.3807 7.7609 14.0969
 266    1 1.000000    0 0.000000 2.6488 8.3573 14.1100
 267    2 0.000000    1 1.860000 2.0148 8.0591 14.1035
 268    2 0.000000   -1 1.860000 2.0148 8.0591 14.1035
 269    1 1.000000    0 0.000000 15.4975 9.7777 1.8810
 270    1 1.000000    0 0.000000 16.7390 10.3701 2.1486
 271    2 0.000000    1 1.860000 16.1182 10.0739 2.0148
 272    2 0.000000   -1 1.860000 16.1182 10.0739 2.0148
 273    1 1.000000    0 0.000000 5.8576 3.3655 11.9654
 274    1 1.000000    0 0.000000 6.2311 4.6936 12.2120
 275    2 0.000000    1 1.860000 6.0443 4.0296 12.0887
 276    2 0.000000   -1 1.860000 6.0443 4.0296 12.0887
 277    1 1.000000    0 0.000000 7.8278 17.6856 17.6459
 278    1 1.000000    0 0.000000 8.2904 18.5804 18.6202
 279    2 0.000000    1 1.860000 8.0591 18.1330 18.1330
 280    2 0.000000   -1 1.860000 8.0591 18.1330 18.1330
 281    1 1.000000    0 0.000000 13.8253 11.4476 5.9929
 282    1 1.000000    0 0.000000 14.3817 12.7297 6.0958
 283    2 0.000000    1 1.860000 14.1035 12.0887 6.0443
 284    2 0.000000   -1 1.860000 14.1035 12.0887 6.0443
 285    1 1.000000    0 0.000000 12.0346 5.4315 17.7977
 286    1 1.000000    0 0.000000 12.1428 6.6572 18.4683
 287    2 0.000000    1 1.860000 12.0887 6.0443 18.1330
 288    2 0.000000   -1 1.860000 12.0887 6.0443 18.1330
 289    1 1.000000    0 0.000000 17.5944 9.7217 13.8262
 290    1 1.000000    0 0.000000 18.6716 10.4261 14.3808
 291    2 0.000000    1 1.860000 18.1330 10.0739 14.1035
 292    2 0.000000   -1 1.860000 18.1330 10.0739 14.1035
 293    1 1.000000    0 0.000000 18.0178 1.4313 7.6886
 294    1 1.000000    0 0.000000 18.2483 2.5982 8.4297
 295    2 0.000000    1 1.860000 18.1330 2.0148 8.0591
 296    2 0.000000   -1 1.860000 18.1330 2.0148 8.0591
 297    1 1.000000    0 0.000000 17.6208 5.7950 13.6955
 298    1 1.000000    0 0.000000 18.6452 6.2937 14.5115
 299    2 0.000000    1 1.860000 18.1330 6.0443 14.1035
 300    2 0.000000   -1 1.860000 18.1330 6.0443 14.1035
 301    1 1.000000    0 0.000000 13.6503 9.5803 17.9280
 302    1 1.000000    0 0.000000 14.5566 10.5675 18.3380
 303    2 0.000000    1 1.860000 14.1035 10.0739 18.1330
 304    2 0.000000   -1 1.860000 14.1035 10.0739 18.1330
 305    1 1.000000    0 0.000000 11.6253 3.6336 11.7430
 306    1 1.000000    0 0.000000 12.5521 4.4255 12.4344
 307    2 0.000000    1 1.860000 12.0887 4.0296 12.0887
 308    2 0.000000   -1 1.860000 12.0887 4.0296 12.0887
 309    1 1.000000    0 0.000000 3.9473 13.5356 7.6569
 310    1 1.000000    0 0.000000 4.1118 14.6713 8.4614
 311    2 0.000000    1 1.860000 4.0296 14.1035 8.0591
 312    2 0.000000   -1 1.860000 4.0296 14.1035 8.0591
 313    1 1.000000    0 0.000000 3.4305 16.1024 9.7108
 314    1 1.000000    0 0.000000 4.6286 16.1341 10.4370
 315    2 0.000000    1 1.860000 4.0296 16.1182 10.0739
 316    2 0.000000   -1 1.860000 4.0296 16.1182 10.0739
 317    1 1.000000    0 0.000000 15.5387 12.0203 9.6861
 318    1 1.000000    0 0.000000 16.6978 12.1571 10.4617
 319    2 0.000000    1 1.860000 16.1182 12.0887 10.0739
 320    2 0.000000   -1 1.860000 16.1182 12.0887 10.0739
 321    1 1.000000    0 0.000000 5.4685 11.8779 3.6906
 322    1 1.000000    0 0.000000 6.6202 12.2995 4.3685
 323    2 0.000000    1 1.860000 6.0443 12.0887 4.0296
 324    2 0.000000   -1 1.860000 6.0443 12.0887 4.0296
 325    1 1.000000    0 0.000000 7.5644 15.9490 5.5779
 326    1 1.000000    0 0.000000 8.5539 16.2874 6.5108
 327    2 0.000000    1 1.860000 8.0591 16.1182 6.0443
 328    2 0.000000   -1 1.860000 8.0591 16.1182 6.0443
 329    1 1.000000    0 0.000000 13.9425 7.5193 13.6867
 330    1 1.000000    0 0.000000 14.2644 8.5990 14.5202
 331    2 0.000000    1 1.860000 14.1035 8.0591 14.1035
 332    2 0.000000   -1 1.860000 14.1035 8.0591 14.1035
 333    1 1.000000    0 0.000000 5.9448 17.8312 17.5085
 334    1 1.000000    0 0.000000 6.1439 18.4348 18.7575
 335    2 0.000000    1 1.860000 6.0443 18.1330 18.1330
 336    2 0.000000   -1 1.860000 6.0443 18.1330 18.1330
 337    1 1.000000    0 0.000000 11.7428 1.4977 11.7662
 338    1 1.000000    0 0.000000 12.4345 2.5319 12.4112
 339    2 0.000000    1 1.860000 12.0887 2.0148 12.0887
 340    2 0.000000   -1 1.860000 12.0887 2.0148 12.0887
 341    1 1.000000    0 0.000000 9.5048 13.9879 7.6670
 342    1 1.000000    0 0.000000 10.6430 14.2190 8.4512
 343    2 0.000000    1 1.860000 10.0739 14.1035 8.0591
 344    2 0.000000   -1 1.860000 10.0739 14.1035 8.0591
 345    1 1.000000    0 0.000000 7.4100 17.9140 7.9120
 346    1 1.000000    0 0.000000 8.7082 18.3521 8.2063
 347    2 0.000000    1 1.860000 8.0591 18.1330 8.0591
 348    2 0.000000   -1 1.860000 8.0591 18.1330 8.0591
 349    1 1.000000    0 0.000000 1.9932 5.6029 13.5597
 350    1 1.000000    0 0.000000 2.0363 6.4858 14.6472
 351    2 0.000000    1 1.860000 2.0148 6.0443 14.1035
 352    2 0.000000   -1 1.860000 2.0148 6.0443 14.1035
 353    1 1.000000    0 0.000000 13.5506 5.8669 3.6373
 354    1 1.000000    0 0.000000 14.6563 6.2218 4.4218
 355    2 0.000000    1 1.860000 14.1035 6.0443 4.0296
 356    2 0.000000   -1 1.860000 14.1035 6.0443 4.0296
 357    1 1.000000    0 0.000000 13.5998 7.7092 15.7793
 358    1 1.000000    0 0.000000 14.6071 8.4090 16.4572
 359    2 0.000000    1 1.860000 14.1035 8.0591 16.1182
 360    2 0.000000   -1 1.860000 14.1035 8.0591 16.1182
 361    1 1.000000    0 0.000000 11.5562 5.8826 5.6186
 362    1 1.000000    0 0.000000 12.6212 6.2061 6.4701
 363    2 0.000000    1 1.860000 12.0887 6.0443 6.0443
 364    2 0.000000   -1 1.860000 12.0887 6.0443 6.0443
 365    1 1.000000    0 0.000000 7.8204 1.5756 15.6272
 366    1 1.000000    0 0.000000 8.2978 2.4540 16.6093
 367    2 0.000000    1 1.860000 8.0591 2.0148 16.1182
 368    2 0.000000   -1 1.860000 8.0591 2.0148 16.1182
 369    1 1.000000    0 0.000000 7.8596 1.7998 13.4671
 370    1 1.000000    0 0.000000 8.2586 2.2298 14.7398
 371    2 0.000000    1 1.860000 8.0591 2.0148 14.1035
 372    2 0.000000   -1 1.860000 8.0591 2.0148 14.1035
 373    1 1.000000    0 0.000000 17.9530 1.5314 17.6587
 374    1 1.000000    0 0.000000 18.3130 2.4981 18.6073
 375    2 0.000000    1 1.860000 18.1330 2.0148 18.1330
 376    2 0.000000   -1 1.860000 18.1330 2.0148 18.1330
 377    1 1.000000    0 0.000000 15.6247 1.5979 7.7878
 378    1 1.000000    0 0.000000 16.6118 2.4316 8.3304
 379    2 0.000000    1 1.860000 16.1182 2.0148 8.0591
 380    2 0.000000   -1 1.860000 16.1182 2.0148 8.0591
 381    1 1.000000    0 0.000000 9.6995 1.8417 13.5370
 382    1 1.000000    0 0.000000 10.4483 2.1879 14.6699
 383    2 0.000000    1 1.860000 10.0739 2.0148 14.1035
 384    2 0.000000   -1 1.860000 10.0739 2.0148 14.1035
 385    1 1.000000    0 0.000000 3.4884 15.8256 3.6941
 386    1 1.000000    0 0.000000 4.5707 16.4109 4.3650
 387    2 0.000000    1 1.860000 4.0296 16.1182 4.0296
 388    2 0.000000   -1 1.860000 4.0296 16.1182 4.0296
 389    1 1.000000    0 0.000000 5.8633 13.4985 1.7110
 390    1 1.000000    0 0.000000 6.2254 14.7084 2.3185
 391    2 0.000000    1 1.860000 6.0443 14.1035 2.0148
 392    2 0.000000   -1 1.860000 6.0443 14.1035 2.0148
 393    1 1.000000    0 0.000000 15.8854 9.9092 5.4043
 394    1 1.000000    0 0.000000 16.3511 10.2386 6.6844
 395    2 0.000000    1 1.860000 16.1182 10.0739 6.0443
 396    2 0.000000   -1 1.860000 16.1182 10.0739 6.0443
 397    1 1.000000    0 0.000000 13.4611 13.9630 3.7875
 398    1 1.000000    0 0.000000 14.7459 14.2439 4.2716
 399    2 0.000000    1 1.860000 14.1035 14.1035 4.0296
 400    2 0.000000   -1 1.860000 14.1035 14.1035 4.0296
 401    1 1.000000    0 0.000000 11.5873 6.0215 1.5258
 402    1 1.000000    0 0.000000 12.5901 6.0672 2.5037
 403    2 0.000000    1 1.860000 12.0887 6.0443 2.0148
 404    2 0.000000   -1 1.860000 12.0887 6.0443 2.0148
 405    1 1.000000    0 0.000000 7.9290 17.8138 3.4195
 406    1 1.000000    0 0.000000 8.1893 18.4522 4.6396
 407    2 0.000000    1 1.860000 8.0591 18.1330 4.0296
 408    2 0.000000   -1 1.860000 8.0591 18.1330 4.0296
 409    1 1.000000    0 0.000000 1.5214 3.7812 5.6132
 410    1 1.000000    0 0.000000 2.5082 4.2779 6.4755
 411    2 0.000000    1 1.860000 2.0148 4.0296 6.0443
 412    2 0.000000   -1 1.860000 2.0148 4.0296 6.0443
 413    1 1.000000    0 0.000000 5.8295 5.8463 1.3779
 414    1 1.000000    0 0.000000 6.2592 6.2424 2.6517
 415    2 0.000000    1 1.860000 6.0443 6.0443 2.0148
 416    2 0.000000   -1 1.860000 6.0443 6.0443 2.0148
 417    1 1.000000    0 0.000000 15.5564 17.8153 13.8306
 418    1 1.000000    0 0.000000 16.6800 18.4507 14.3763
 419    2 0.000000    1 1.860000 16.1182 18.1330 14.1035
 420    2 0.000000   -1 1.860000 16.1182 18.1330 14.1035
 421    1 1.000000    0 0.000000 3.9690 5.3463 12.0817
 422    1 1.000000    0 0.000000 4.0901 6.7424 12.0956
 423    2 0.000000    1 1.860000 4.0296 6.0443 12.0887
 424    2 0.000000   -1 1.860000 4.0296 6.0443 12.0887
 425    1 1.000000    0 0.000000 11.6718 11.7736 11.6219
 426    1 1.000000    0 0.000000 12.5056 12.4037 12.5555
 427    2 0.000000    1 1.860000 12.0887 12.0887 12.0887
 428    2 0.000000   -1 1.860000 12.0887 12.0887 12.0887
 429    1 1.000000    0 0.000000 11.4678 3.7229 3.9227
 430    1 1.000000    0 0.000000 12.7096 4.3362 4.1364
 431    2 0.000000    1 1.860000 12.0887 4.0296 4.0296
 432    2 0.000000   -1 1.860000 12.0887 4.0296 4.0296
 433    1 1.000000    0 0.000000 5.8598 13.4998 3.7253
 434    1 1.000000    0 0.000000 6.2289 14.7071 4.3338
 435    2 0.000000    1 1.860000 6.0443 14.1035 4.0296
 436    2 0.000000   -1 1.860000 6.0443 14.1035 4.0296
 437    1 1.000000    0 0.000000 11.8846 7.6709 3.4830
 438    1 1.000000    0 0.000000 12.2927 8.4473 4.5761
 439    2 0.000000    1 1.860000 12.0887 8.0591 4.0296
 440    2 0.000000   -1 1.860000 12.0887 8.0591 4.0296
 441    1 1.000000    0 0.000000 1.5489 11.9990 1.4991
 442    1 1.000000    0 0.000000 2.4807 12.1784 2.5304
 443    2 0.000000    1 1.860000 2.0148 12.0887 2.0148
 444    2 0.000000   -1 1.860000 2.0148 12.0887 2.0148
 445    1 1.000000    0 0.000000 3.5121 11.8035 13.7267
 446    1 1.000000    0 0.000000 4.5470 12.3738 14.4802
 447    2 0.000000    1 1.860000 4.0296 12.0887 14.1035
 448    2 0.000000   -1 1.860000 4.0296 12.0887 14.1035
 449    1 1.000000    0 0.000000 14.0584 1.7888 3.3678
 450    1 1.000000    0 0.000000 14.1485 2.2408 4.6913
 451    2 0.000000    1 1.860000 14.1035 2.0148 4.0296
 452    2 0.000000   -1 1.860000 14.1035 2.0148 4.0296
 453    1 1.000000    0 0.000000 7.5585 16.0774 3.5409
 454    1 1.000000    0 0.000000 8.5597 16.1590 4.5182
 455    2 0.000000    1 1.860000 8.0591 16.1182 4.0296
 456    2 0.000000   -1 1.860000 8.0591 16.1182 4.0296
 457    1 1.000000    0 0.000000 17.8608 5.5856 11.6343
 458    1 1.000000    0 0.000000 18.4052 6.5031 12.5430
 459    2 0.000000    1 1.860000 18.1330 6.0443 12.0887
 460    2 0.000000   -1 1.860000 18.1330 6.0443 12.0887
 461    1 1.000000    0 0.000000 1.4171 7.7266 15.9658
 462    1 1.000000    0 0.000000 2.6124 8.3916 16.2707
 463    2 0.000000    1 1.860000 2.0148 8.0591 16.1182
 464    2 0.000000   -1 1.860000 2.0148 8.0591 16.1182
 465    1 1.000000    0 0.000000 3.6663 3.5102 7.7603
 466    1 1.000000    0 0.000000 4.3928 4.5489 8.3579
 467    2 0.000000    1 1.860000 4.0296 4.0296 8.0591
 468    2 0.000000   -1 1.860000 4.0296 4.0296 8.0591
 469    1 1.000000    0 0.000000 17.5695 13.7643 11.8470
 470    1 1.000000    0 0.000000 18.6965 14.4426 12.3303
 471    2 0.000000    1 1.860000 18.1330 14.1035 12.0887
 472    2 0.000000   -1 1.860000 18.1330 14.1035 12.0887
 473    1 1.000000    0 0.000000 13.7292 15.6621 5.6663
 474    1 1.000000    0 0.000000 14.4777 16.5744 6.4223
 475    2 0.000000    1 1.860000 14.1035 16.1182 6.0443
 476    2 0.000000   -1 1.860000 14.1035 16.1182 6.0443
 477    1 1.000000    0 0.000000 7.9634 9.6840 3.4552
 478    1 1.000000    0 0.000000 8.1548 10.4638 4.6039
 479    2 0.000000    1 1.860000 8.0591 10.0739 4.0296
 480    2 0.000000   -1 1.860000 8.0591 10.0739 4.0296
 481    1 1.000000    0 0.000000 3.3505 1.8803 3.9208
 482    1 1.000000    0 0.000000 4.7086 2.1493 4.1383
 483    2 0.000000    1 1.860000 4.0296 2.0148 4.0296
 484    2 0.000000   -1 1.860000 4.0296 2.0148 4.0296
 485    1 1.000000    0 0.000000 1.5777 11.5447 3.9659
 486    1 1.000000    0 0.000000 2.4518 12.6327 4.0933
 487    2 0.000000    1 1.860000 2.0148 12.0887 4.0296
 488    2 0.000000   -1 1.860000 2.0148 12.0887 4.0296
 489    1 1.000000    0 0.000000 3.4670 18.1226 1.5972
 490    1 1.000000    0 0.000000 4.5921 18.1434 2.4324
 491    2 0.000000    1 1.860000 4.0296 18.1330 2.0148
 492    2 0.000000   -1 1.860000 4.0296 18.1330 2.0148
 493    1 1.000000    0 0.000000 7.6984 9.5073 1.8153
 494    1 1.000000    0 0.000000 8.4199 10.6405 2.2142
 495    2 0.000000    1 1.860000 8.0591 10.0739 2.0148
 496    2 0.000000   -1 1.860000 8.0591 10.0739 2.0148
 497    1 1.000000    0 0.000000 11.9877 16.0107 7.3741
 498    1 1.000000    0 0.000000 12.1897 16.2258 8.7441
 499    2 0.000000    1 1.860000 12.0887 16.1182 8.0591
 500    2 0.000000   -1 1.860000 12.0887 16.1182 8.0591
 501    1 1.000000    0 0.000000 13.6098 1.7564 17.7081
 502    1 1.000000    0 0.000000 14.5971 2.2731 18.5580
 503    2 0.000000    1 1.860000 14.1035 2.0148 18.1330
 504    2 0.000000   -1 1.860000 14.1035 2.0148 18.1330
 505    1 1.000000    0 0.000000 3.6443 9.5479 15.8616
 506    1 1.000000    0 0.000000 4.4148 10.5999 16.3749
 507    2 0.000000    1 1.860000 4.0296 10.0739 16.1182
 508    2 0.000000   -1 1.860000 4.0296 10.0739 16.1182
 509    1 1.000000    0 0.000000 13.4629 3.8240 15.9223
 510    1 1.000000    0 0.000000 14.7440 4.2351 16.3142
 511    2 0.000000    1 1.860000 14.1035 4.0296 16.1182
 512    2 0.000000   -1 1.860000 14.1035 4.0296 16.1182
 513    1 1.000000    0 0.000000 5.4613 5.8859 11.7337
 514    1 1.000000    0 0.000000 6.6273 6.2028 12.4436
 515    2 0.000000    1 1.860000 6.0443 6.0443 12.0887
 516    2 0.000000   -1 1.860000 6.0443 6.0443 12.0887
 517    1 1.000000    0 0.000000 7.9827 13.6407 9.5533
 518    1 1.000000    0 0.000000 8.1356 14.5662 10.5945
 519    2 0.000000    1 1.860000 8.0591 14.1035 10.0739
 520    2 0.000000   -1 1.860000 8.0591 14.1035 10.0739
 521    1 1.000000    0 0.000000 11.6678 1.4727 3.8883
 522    1 1.000000    0 0.000000 12.5096 2.5569 4.1708
 523    2 0.000000    1 1.860000 12.0887 2.0148 4.0296
 524    2 0.000000   -1 1.860000 12.0887 2.0148 4.0296
 525    1 1.000000    0 0.000000 9.4381 9.8657 13.8952
 526    1 1.000000    0 0.000000 10.7097 10.2821 14.3117
 527    2 0.000000    1 1.860000 10.0739 10.0739 14.1035
 528    2 0.000000   -1 1.860000 10.0739 10.0739 14.1035
 529    1 1.000000    0 0.000000 13.6157 5.5867 17.9241
 530    1 1.000000    0 0.000000 14.5912 6.5020 18.3419
 531    2 0.000000    1 1.860000 14.1035 6.0443 18.1330
 532    2 0.000000   -1 1.860000 14.1035 6.0443 18.1330
 533    1 1.000000    0 0.000000 10.0367 5.6758 9.4791
 534    1 1.000000    0 0.000000 10.1111 6.4129 10.6687
 535    2 0.000000    1 1.860000 10.0739 6.0443 10.0739
 536    2 0.000000   -1 1.860000 10.0739 6.0443 10.0739