LAMMPS (11 Aug 2017)
#hydrogen

variable        my_temp index 2000 5000 8000 12000 15000 20000 25000 30000 35000 40000 45000
variable        old_step equal 0
variable        Step equal step
variable        dumpstep equal 1000

label           loop
clear
variable        sname index hydrogen
units           electron
newton          on
boundary        p p p

atom_style      electron

read_data       data/T${my_temp}.lammps
read_data       data/T2000.lammps
  orthogonal box = (0 0 0) to (20.1478 20.1478 20.1478)
  2 by 2 by 4 MPI processor grid
  reading atoms ...
  864 atoms
  reading velocities ...
  864 velocities
pair_style      eff/cut 20.15
pair_coeff      * *
timestep        0.002
neigh_modify    one 20000 page 200000

#comm_modify	  vel yes
group           at type 1
432 atoms in group at
group	        el type 2
432 atoms in group el
reset_timestep  ${old_step}
reset_timestep  0
thermo          ${dumpstep}
thermo          1000

# dump            1 all cfg 10000 output/all/all.*.cfg mass type xs ys zs
# dump_modify     1 element C H

# dump            4  el cfg 10000 output/all/el.*.cfg mass type xs ys zs
# dump_modify     4 element C H

compute         1a all property/atom spin eradius ervel
compute     	peatom all pe/atom
compute		    keatom all ke/atom/eff
dump            2 all custom ${dumpstep} all/all.*.lammpstrj id type q c_1a[1] c_1a[2] x y z vx vy vz c_1a[3] c_peatom c_keatom
dump            2 all custom 1000 all/all.*.lammpstrj id type q c_1a[1] c_1a[2] x y z vx vy vz c_1a[3] c_peatom c_keatom

# compute       eff_energy components

compute         effTemp all temp/eff
compute         energies all pair eff/cut
variable        eke equal c_energies[1]
variable        epauli equal c_energies[2]
variable        ecoul equal c_energies[3]
variable        erres equal c_energies[4]

thermo_style    custom step pe temp press vol v_eke v_epauli v_ecoul v_erres lx
thermo_modify	temp effTemp

#dump            3 all xyz 1000 ${sname}.xyz

min_style       cg
min_modify      line quadratic
minimize        0 1.0e-2 1000 2000
WARNING: Using 'neigh_modify every 1 delay 0 check yes' setting during minimization (../min.cpp:168)
Neighbor list info ...
  update every 1 steps, delay 0 steps, check yes
  max neighbors/atom: 20000, page size: 200000
  master list distance cutoff = 22.15
  ghost atom cutoff = 22.15
  binsize = 11.075, bins = 2 2 2
  1 neighbor lists, perpetual/occasional/extra = 1 0 0
  (1) pair eff/cut, perpetual
      attributes: half, newton on
      pair build: half/bin/atomonly/newton
      stencil: half/bin/3d/newton
      bin: standard
Per MPI rank memory allocation (min/avg/max) = 7.823 | 7.932 | 8.162 Mbytes
Loop time of 44.7524 on 16 procs for 1000 steps with 864 atoms

99.9% CPU use with 16 MPI tasks x no OpenMP threads

Minimization stats:
  Stopping criterion = max iterations
  Energy initial, next-to-last, final = 
        -88.6162492207     -201.998641299     -201.998730435
  Force two-norm initial, final = 12.7007 0.0138115
  Force max component initial, final = 1.05011 0.00251957
  Final line search alpha, max atom move = 1 0.00251957
  Iterations, force evaluations = 1000 1393

MPI task timing breakdown:
Section |  min time  |  avg time  |  max time  |%varavg| %total
---------------------------------------------------------------
Pair    | 14.011     | 27.915     | 40.793     | 139.6 | 62.38
Neigh   | 0.045417   | 0.065778   | 0.091282   |   5.2 |  0.15
Comm    | 3.7152     | 16.594     | 30.473     | 181.0 | 37.08
Output  | 0.053932   | 0.053946   | 0.05414    |   0.0 |  0.12
Modify  | 0          | 0          | 0          |   0.0 |  0.00
Other   |            | 0.1238     |            |       |  0.28

Nlocal:    54 ave 60 max 42 min
Histogram: 1 0 2 0 1 2 0 2 6 2
Nghost:    15351.7 ave 15428 max 15304 min
Histogram: 4 0 2 2 4 0 1 2 0 1
Neighs:    129669 ave 187743 max 64123 min
Histogram: 1 1 1 2 3 2 1 1 2 2

Total # of neighbors = 2074701
Ave neighs/atom = 2401.27
Neighbor list builds = 18
Dangerous builds = 0
#velocity        at create ${my_temp} 2133123
fix             1 all nve/eff
run             500000
Per MPI rank memory allocation (min/avg/max) = 6.385 | 6.738 | 7.411 Mbytes
Step PotEng Temp Press Volume v_eke v_epauli v_ecoul v_erres Lx 
   50000   -200.30945    769.25783 7.9027936e+10    8178.6764    255.40719    6.9314591    -462.6481            0    20.147802 
  100000   -200.35779    792.87322 7.8503973e+10    8178.6764    255.20336    6.7187024   -462.27986            0    20.147802 
  150000   -200.30074    765.00428 7.8499987e+10    8178.6764    255.38061    6.5845929   -462.26594            0    20.147802 
  200000   -200.27583    752.83775 7.8093893e+10    8178.6764    255.07331    6.5697501   -461.91889            0    20.147802 
  250000    -200.2373    734.01929 7.7888296e+10    8178.6764    254.97417    6.5205083   -461.73198            0    20.147802 
  300000   -200.24101     735.8326 7.764029e+10    8178.6764    254.78609    6.4985937    -461.5257            0    20.147802 
  350000   -200.24329    736.94308 7.7388945e+10    8178.6764     254.6434    6.4700051   -461.35669            0    20.147802 