ITEM: TIMESTEP
9000
ITEM: NUMBER OF ATOMS
864
ITEM: BOX BOUNDS pp pp pp
0.0000000000000000e+00 2.0107868000000000e+01
0.0000000000000000e+00 2.0107868000000000e+01
0.0000000000000000e+00 2.0107868000000000e+01
ITEM: ATOMS id type q c_1a[1] c_1a[2] x y z vx vy vz c_1a[3] 
736 2 0 -1 1.53213 3.98891 1.12031 3.57431 -2.39261 0.0200021 2.79986 1.34962 
400 2 0 -1 2.11817 19.7065 8.60527 6.57698 1.77082 -2.84871 2.15555 -1.70776 
830 2 0 1 2.26844 11.3748 9.23581 5.19717 3.40734 -5.16246 -3.39446 0.974575 
369 1 1 0 0 11.5098 1.59724 4.45086 0.341119 -0.133712 -0.317286 0 
246 2 0 1 1.89966 3.63888 5.01015 1.96116 -2.15806 3.94735 2.24646 1.98339 
515 1 1 0 0 9.83284 7.50628 4.82201 0.0937533 0.025 0.0162716 0 
29 1 1 0 0 16.7574 1.17431 2.0503 -0.044441 -0.063859 0.131 0 
147 1 1 0 0 7.71986 0.182113 2.11208 -0.366014 -0.0646667 0.121139 0 
313 1 1 0 0 6.20989 1.61896 2.69483 -0.0718655 0.296748 -0.139041 0 
190 2 0 1 1.85878 11.0394 2.87879 4.78807 0.910401 -3.98774 2.19062 0.199764 
218 2 0 1 1.96752 3.76471 9.93165 4.66916 -3.36156 -0.91657 -3.38312 0.789773 
90 2 0 1 1.69418 8.66678 8.3198 2.60011 -1.54052 -4.26471 -0.841717 2.80905 
51 1 1 0 0 6.89841 5.86926 3.26685 -0.444408 0.0741525 -0.0905351 0 
212 2 0 -1 1.79603 15.8723 6.91177 3.27239 -1.06987 5.99356 -1.52689 0.752178 
53 1 1 0 0 18.6263 0.446643 0.403152 0.0631872 -0.277574 -0.202988 0 
789 1 1 0 0 19.3634 4.70653 0.671547 0.216201 0.091791 0.246812 0 
365 1 1 0 0 7.2019 8.85471 6.37153 -0.0816983 -0.188048 0.240625 0 
359 1 1 0 0 15.2142 5.56704 2.37804 0.0130113 -0.0247942 -0.188746 0 
825 1 1 0 0 19.7187 9.45141 3.01066 0.338897 -0.200382 -0.0705744 0 
641 1 1 0 0 10.3144 5.82627 5.71219 -0.271724 -0.356636 -0.154144 0 
706 2 0 1 1.63963 7.55324 5.52316 1.36865 -1.34114 -0.331713 4.42985 1.50908 
426 2 0 1 2.78582 15.8696 9.68255 2.58119 -3.11 5.70006 2.34341 3.48058 
293 1 1 0 0 9.92099 3.37579 3.94909 0.0524268 0.186201 0.344821 0 
123 1 1 0 0 6.46168 1.58522 0.285758 0.197751 0.135119 -0.190165 0 
390 2 0 1 1.6619 0.643755 3.80295 6.50719 -2.35194 -4.61671 1.58961 -4.91874 
367 1 1 0 0 11.0115 6.58457 1.98126 0.6073 -0.235537 0.095411 0 
151 1 1 0 0 18.1101 6.53862 0.108677 -0.44392 0.154618 -0.189535 0 
54 2 0 1 1.62669 16.9096 0.997236 5.94663 -2.09303 -5.21714 -1.12362 -3.26233 
163 1 1 0 0 8.26035 3.29147 0.864216 0.274658 0.212116 0.33366 0 
36 2 0 -1 2.02435 10.9043 3.11794 4.79152 5.1214 0.1223 1.4101 -5.57947 
45 1 1 0 0 3.81269 3.13844 1.48782 0.41016 -0.0472663 0.274163 0 
227 1 1 0 0 15.718 9.48877 4.97582 -0.349557 -0.131388 -0.271499 0 
596 2 0 -1 1.42597 1.62973 7.74083 0.850081 -1.08798 0.258732 3.42125 1.601 
276 2 0 -1 1.37581 8.66424 6.23557 0.0487702 1.2572 2.2107 -0.830563 -0.931582 
529 1 1 0 0 3.81834 5.28842 3.44771 -0.245894 0.0180313 0.145673 0 
763 1 1 0 0 17.0689 7.98921 6.16514 0.00748527 0.180194 -0.278065 0 
220 2 0 -1 1.76405 1.77103 8.8984 5.00385 1.21593 -0.118049 0.0143777 -2.32701 
506 2 0 1 1.57779 6.02071 1.73853 0.578155 -2.7171 -0.0897635 3.41087 1.84215 
197 1 1 0 0 3.94209 9.1331 2.27827 -0.0993553 0.222374 0.0733974 0 
48 2 0 -1 2.06777 16.6962 6.22146 0.424219 4.07544 0.0673625 -2.57759 1.76254 
154 2 0 1 2.0546 11.7086 1.27114 1.10029 -0.511658 2.18158 0.790246 -1.12471 
199 1 1 0 0 4.14697 9.8332 6.60738 0.0286957 -0.186903 0.264061 0 
201 1 1 0 0 2.06409 3.07552 4.87232 -0.355411 0.160781 0.458458 0 
191 1 1 0 0 0.033781 3.95646 3.70661 -0.319686 0.322773 0.147573 0 
81 1 1 0 0 16.4953 7.40351 5.18308 0.0239919 -0.00276788 0.396742 0 
100 2 0 -1 1.58628 1.92965 6.78438 1.96765 -0.675702 -4.38092 3.11209 1.32954 
799 1 1 0 0 19.3481 9.97701 5.9424 -0.0670169 0.0732324 -0.0392504 0 
193 1 1 0 0 1.02644 5.84567 4.2203 -0.0783003 0.0170152 -0.240911 0 
805 1 1 0 0 6.35143 3.41862 5.40931 -0.0492257 -0.385628 0.0250679 0 
289 1 1 0 0 5.96802 4.16644 1.0459 0.0452697 0.137552 0.0278403 0 
188 2 0 -1 1.58245 17.9929 5.44851 6.37546 -2.88339 2.13694 5.33995 -1.14062 
656 2 0 -1 2.37931 5.37204 2.45925 5.90631 2.67289 -0.603292 0.593711 -4.03468 
414 2 0 1 2.06172 16.9924 7.79605 6.14759 0.817114 3.76982 -0.393091 3.28878 
850 2 0 1 2.12592 12.6911 9.52513 5.36697 1.21549 -1.89348 1.31965 -0.460349 
624 2 0 -1 1.68875 7.32863 0.825348 2.56449 -1.27774 0.493815 1.44373 1.12931 
131 1 1 0 0 4.60225 1.86575 5.83405 -0.843864 0.35773 -0.331467 0 
102 2 0 1 2.10231 19.9719 9.48661 1.9723 3.88832 0.942504 4.42747 -3.51971 
697 1 1 0 0 9.03564 1.17074 6.00992 0.242656 0.0197184 0.0825021 0 
169 1 1 0 0 3.13755 5.79226 1.4453 -0.0262231 0.149779 -0.0469417 0 
9 1 1 0 0 0.459171 2.33205 0.606622 0.171813 0.110714 -0.135207 0 
339 1 1 0 0 12.5758 5.7411 2.63558 -0.248985 -0.186013 0.0562584 0 
326 2 0 1 2.18339 12.5187 1.3316 -0.0267186 0.518817 -1.92248 -2.54039 -1.24279 
244 2 0 -1 2.02191 3.39704 9.14822 2.52855 -1.10205 1.95815 1.02514 -2.18429 
172 2 0 -1 2.19016 6.43839 7.56086 1.83861 1.59575 -1.95753 -0.963852 -5.18724 
544 2 0 -1 1.94873 1.19848 5.10836 3.42353 0.746698 0.09261 0.338542 -2.99295 
101 1 1 0 0 20.091 7.22998 1.11403 0.30688 0.126111 -0.149172 0 
843 1 1 0 0 3.56698 1.47582 3.52831 0.343187 0.0620596 -0.213641 0 
820 2 0 -1 2.50143 13.9399 1.49811 3.37279 2.34008 -0.0153242 0.586068 -2.72749 
752 2 0 -1 2.17427 3.99848 3.38353 0.783896 1.50311 2.80248 0.2022 1.02024 
823 1 1 0 0 1.76542 7.82847 0.70946 0.403326 -0.159839 -0.287412 0 
132 2 0 -1 2.1599 12.9581 6.76187 5.28089 2.48309 1.50495 0.731715 1.00662 
57 1 1 0 0 9.06956 7.36776 0.311708 -0.164585 0.385255 0.22624 0 
435 1 1 0 0 7.69142 1.55194 3.37736 0.322076 -0.211914 0.263799 0 
165 1 1 0 0 1.23698 0.277787 0.422829 0.164791 -0.408794 0.0629468 0 
346 2 0 1 1.6144 18.7041 9.83414 5.4295 3.61328 0.230312 -0.407217 0.535609 
184 2 0 -1 1.84192 7.04197 1.7617 6.20365 2.51607 -0.0544571 -1.78788 5.8084 
31 1 1 0 0 17.1283 4.35907 0.485152 0.385214 0.0509963 0.128625 0 
644 2 0 -1 1.90972 7.54007 8.73088 4.03747 2.33431 3.33891 -0.210695 4.05253 
461 1 1 0 0 17.3699 5.20816 6.10495 -0.249237 0.244934 0.480325 0 
522 2 0 1 2.39706 17.8317 5.28886 2.66207 -1.15479 0.515261 1.10477 1.83216 
740 2 0 -1 1.80397 7.08515 4.03656 3.88249 0.423454 2.32889 4.40213 -0.368286 
633 1 1 0 0 13.8146 7.81098 5.42269 -0.157424 -0.249296 -0.052271 0 
430 2 0 1 2.35777 14.4674 3.81498 4.50989 -0.31243 0.387973 -1.13683 1.41944 
233 1 1 0 0 16.1476 7.18121 2.90032 0.00976061 0.17533 -0.11197 0 
483 1 1 0 0 7.65372 7.7946 2.39257 -0.170902 -0.294784 -0.00911625 0 
727 1 1 0 0 16.5697 1.06898 5.54723 0.21463 0.150526 -0.299474 0 
485 1 1 0 0 12.9733 9.17642 0.046194 0.250447 0.15457 -0.0869214 0 
258 2 0 1 1.57024 11.4634 6.58525 3.02739 0.261751 2.11939 0.125531 0.0164887 
487 1 1 0 0 11.8892 3.98027 4.56388 -0.27887 0.0999107 0.289676 0 
781 1 1 0 0 0.761154 1.00233 4.61448 0.127811 0.050597 -0.141456 0 
751 1 1 0 0 4.22939 6.8598 6.38923 0.230084 -0.180266 -0.200507 0 
232 2 0 -1 2.02164 0.580297 1.17291 0.96526 1.17571 1.22602 -0.878287 -0.583414 
637 1 1 0 0 16.3951 2.31152 6.63483 -0.233442 0.163533 -0.0279134 0 
377 1 1 0 0 0.411817 8.37026 6.38202 -0.189111 0.238228 -0.211195 0 
513 1 1 0 0 19.2041 2.19316 3.1299 0.441275 -0.0681405 0.170364 0 
332 2 0 -1 2.65862 12.6364 3.69257 0.187404 -1.23233 0.733002 -2.95363 0.36182 
579 1 1 0 0 16.3645 2.83531 3.47545 -0.17803 -0.528074 -0.0649799 0 
722 2 0 1 1.5902 6.56147 3.94678 4.88507 1.5888 1.45919 2.26369 -2.91285 
601 1 1 0 0 8.08715 4.60275 3.76718 0.0579769 -0.135131 0.346146 0 
482 2 0 1 1.98705 1.00307 2.79184 1.11158 4.7903 2.77471 -2.10055 2.47373 
603 1 1 0 0 12.1324 9.51619 5.26994 -0.358859 0.315617 -0.0797518 0 
261 1 1 0 0 6.93578 8.72568 1.30697 0.114756 -0.0232139 -0.0531041 0 
605 1 1 0 0 10.8971 1.08528 1.11627 -0.0154357 0.206592 -0.165072 0 
661 1 1 0 0 11.657 6.44004 6.11194 0.160022 0.137607 0.435879 0 
607 1 1 0 0 14.5483 2.30266 3.65968 0.132294 0.277098 0.00827957 0 
588 2 0 -1 2.24822 14.6011 2.42972 3.60949 -1.45127 -1.18318 2.06626 0.621295 
800 2 0 -1 1.89106 12.655 1.84076 1.6553 0.198558 -1.53575 1.68314 0.477978 
32 2 0 -1 2.01242 7.24662 0.643294 -0.289647 5.8077 1.85045 -4.34811 4.82046 
208 2 0 -1 1.40007 2.20262 2.82724 4.75786 1.7229 -0.511322 4.51555 4.21086 
754 2 0 1 2.43887 18.5374 4.17534 1.26797 -4.53075 0.735524 -1.33203 -2.16157 
648 2 0 -1 2.12316 5.94585 3.97591 0.354902 -5.2625 -2.24531 -3.4242 1.1571 
223 1 1 0 0 1.94083 6.12293 2.72707 0.211076 -0.132289 -0.2151 0 
631 1 1 0 0 8.64528 8.50101 2.7684 0.0771306 0.0314261 -0.000418193 0 
437 1 1 0 0 11.4012 6.7749 4.26216 0.430592 0.30294 0.00802364 0 
301 1 1 0 0 6.70856 2.35083 6.68937 0.140716 0.135366 0.279058 0 
166 2 0 1 1.6775 0.635927 6.37983 3.98827 -1.97056 -0.8427 -7.02662 0.968812 
753 1 1 0 0 14.8369 3.68003 1.08376 -0.291325 -0.111638 -0.388831 0 
484 2 0 -1 1.76535 19.8371 1.6305 3.28979 2.72461 -1.77661 4.90025 -1.02341 
86 2 0 1 2.44781 4.08051 1.64338 5.51416 -0.833617 0.191351 1.54128 -1.43592 
342 2 0 1 2.14867 9.44581 6.89151 5.258 0.0675384 2.92494 -0.741895 2.11663 
479 1 1 0 0 12.3395 1.84628 1.31175 0.0578121 -0.15568 -0.121774 0 
589 1 1 0 0 14.6729 4.09862 6.40788 0.371067 0.178646 -0.351794 0 
106 2 0 1 2.3209 14.0928 6.62801 1.66447 1.193 -1.07408 2.37327 -6.31911 
83 1 1 0 0 2.17202 8.7669 4.73194 0.00890088 -0.198834 -0.089963 0 
747 1 1 0 0 5.52013 4.78513 5.06982 -0.0140282 -0.0567599 0.0806052 0 
654 2 0 1 1.85481 19.9824 2.56662 4.15657 -1.58543 -0.502397 -0.910153 1.50993 
749 1 1 0 0 18.5398 5.70907 2.5116 -0.0237383 -0.117544 0.190602 0 
535 1 1 0 0 13.2818 1.25509 2.72898 -0.158477 0.258085 -0.102504 0 
531 1 1 0 0 16.2649 6.85398 0.240564 0.07267 -0.438963 -0.0909239 0 
669 1 1 0 0 8.27496 5.80063 0.42951 -0.394422 -0.255376 -0.0537456 0 
338 2 0 1 1.82901 5.11218 6.1514 4.08214 -3.55431 -1.00215 -0.0793799 3.0868 
345 1 1 0 0 11.3806 9.16108 6.68434 0.309695 0.0523081 0.0455064 0 
204 2 0 -1 1.90605 9.39033 5.01286 3.15785 -2.30983 -0.5996 1.17267 1.23601 
96 2 0 -1 1.6714 18.4771 4.80712 2.0945 -0.184284 1.94853 -2.10195 -0.209486 
468 2 0 -1 2.07868 16.8206 1.35775 4.80973 -1.98085 -0.117825 0.218663 -1.70231 
26 2 0 1 1.48544 16.5224 2.65208 3.07519 3.55621 -1.21566 -1.25851 2.7698 
108 2 0 -1 1.2363 10.2943 6.50179 5.67315 2.02312 3.8502 -5.28176 1.27878 
748 2 0 -1 1.57315 16.5469 8.45549 5.7661 -1.94236 0.218763 2.08941 -1.44088 
514 2 0 1 2.31466 9.0792 2.61322 3.08266 -2.90787 0.322994 -2.09992 0.786072 
76 2 0 -1 1.87316 9.1968 9.37914 1.62301 2.16134 1.05243 -2.68343 1.79081 
574 2 0 1 2.48549 13.7007 3.41786 0.44914 1.56746 -2.40743 0.44631 -1.56489 
566 2 0 1 2.36441 11.7356 9.44373 1.17094 -2.79472 -1.68592 -1.14641 4.07881 
280 2 0 -1 2.46744 5.47434 8.08052 6.56853 -0.112718 -0.574536 -0.100626 -2.12331 
848 2 0 -1 2.22612 12.1226 1.27168 6.5216 -0.259844 -1.64168 -0.489592 -3.25747 
347 1 1 0 0 5.80667 8.29387 9.16784 -0.164176 0.164559 0.25372 0 
303 1 1 0 0 10.9206 1.99307 7.34683 0.137874 0.234277 0.0715766 0 
489 1 1 0 0 12.4679 5.50699 7.01911 -0.456139 0.151827 -0.153531 0 
206 2 0 1 2.03762 7.95156 6.18592 8.30591 1.66509 -2.621 0.845527 0.670059 
141 1 1 0 0 0.576039 8.21427 13.0809 -0.318211 -0.249208 -0.379778 0 
21 1 1 0 0 0.401623 0.555665 12.9453 0.00894085 -0.045947 0.327751 0 
470 2 0 1 1.54843 12.1388 6.20596 9.20396 2.88373 -0.857185 -1.92292 1.05435 
376 2 0 -1 1.74795 8.25875 9.4098 7.89546 -3.16886 -2.83143 -1.35719 -1.4522 
39 1 1 0 0 7.77378 7.904 12.9538 -0.0215548 0.165573 -0.0889943 0 
441 1 1 0 0 4.16183 1.98454 9.20212 0.048291 0.176058 -0.330468 0 
404 2 0 -1 1.28156 0.732007 4.37441 12.4679 0.0817117 1.25839 -0.792008 -3.81181 
592 2 0 -1 2.19266 17.0848 3.89305 8.94009 0.631177 1.6662 -1.14989 -2.21841 
454 2 0 1 1.67525 17.632 9.14088 12.209 -4.33636 2.14987 1.86489 1.68836 
439 1 1 0 0 3.21163 1.05678 7.68276 0.0303912 -0.0222367 -0.29899 0 
702 2 0 1 1.38455 0.58955 7.70876 13.0538 1.23809 0.114816 1.32888 2.17717 
510 2 0 1 1.53852 8.57896 8.94867 6.94557 -0.451929 -0.881771 -0.884548 1.19747 
630 2 0 1 1.45183 17.763 4.5901 6.57811 -1.41311 2.53296 -1.41085 -2.90868 
626 2 0 1 2.67926 6.15618 7.91474 11.9548 -0.447077 2.91218 0.447162 0.462129 
65 1 1 0 0 16.385 7.91061 8.67954 -0.370961 -0.00594495 0.15976 0 
368 2 0 -1 2.00376 17.1812 9.21399 8.74185 3.1939 -2.3922 -1.6578 0.0263862 
85 1 1 0 0 1.66443 6.46414 9.74503 0.263565 -0.093054 -0.207072 0 
643 1 1 0 0 1.59945 4.1724 12.1176 -0.117484 -0.291996 -0.155959 0 
33 1 1 0 0 1.11735 6.51635 7.0837 0.0249561 -0.118874 0.221195 0 
762 2 0 1 2.14312 0.0739618 5.36245 9.04212 -1.0894 3.49641 -0.0785618 1.7727 
456 2 0 -1 1.99532 11.002 4.00055 12.3885 3.34253 1.20426 -0.277974 4.57263 
89 1 1 0 0 0.420288 6.34138 10.9566 0.255646 -0.594991 0.0183511 0 
209 1 1 0 0 6.41382 9.67606 10.7256 -0.149893 -0.136309 -0.418454 0 
196 2 0 -1 1.95922 1.05964 6.97406 9.31076 -2.25388 3.62508 2.27008 -0.541697 
179 1 1 0 0 8.1777 1.49014 12.6308 0.119066 -0.0583882 0.0989972 0 
264 2 0 -1 2.47477 6.24542 7.97286 10.4225 -5.84762 1.31502 0.656468 -5.01525 
181 1 1 0 0 0.192784 3.79214 9.49439 0.0248635 0.232711 -0.207087 0 
322 2 0 1 1.62038 -0.194586 6.5366 7.38463 -2.68126 -2.11578 4.24143 9.08433 
668 2 0 -1 1.51031 8.33759 4.17866 10.005 -3.1314 -0.286591 1.09617 -0.0660901 
397 1 1 0 0 4.83185 8.70397 12.6193 0.196759 0.24345 0.266111 0 
734 2 0 1 1.88855 4.81308 1.14669 9.03295 0.220002 -1.31229 -0.288911 0.111898 
415 1 1 0 0 8.478 0.990793 8.84679 -0.0262825 0.271538 -0.100588 0 
294 2 0 1 2.64585 1.24401 9.23444 7.15441 -6.40142 -0.362743 1.61276 -0.391496 
704 2 0 -1 1.92303 7.83105 1.52962 12.6929 -2.23939 1.38263 -1.17062 -0.910104 
290 2 0 1 1.47431 7.07283 3.32225 10.2383 -1.17552 1.58661 3.29182 -4.57094 
440 2 0 -1 2.26853 16.8405 0.0612919 9.71922 1.3788 -0.500333 -0.0525161 -2.06894 
66 2 0 1 1.84117 4.0712 5.25706 13.4322 -2.37661 2.62503 0.523942 4.50817 
642 2 0 1 1.66674 7.42295 1.06003 13.2267 -0.611795 -0.405021 0.74447 -0.953864 
320 2 0 -1 1.79509 16.5666 1.72371 6.67853 -0.995598 3.87401 -1.39291 -0.576358 
540 2 0 -1 1.44514 1.06019 5.90842 6.56369 1.84303 -4.88461 -3.15481 2.90953 
424 2 0 -1 2.10564 2.99443 0.429392 8.30506 2.69238 -2.02639 -1.06482 -5.81041 
225 1 1 0 0 0.736777 4.33256 6.90236 0.0355802 -0.08383 -0.185531 0 
828 2 0 -1 2.63572 1.55395 2.66746 7.23687 0.332381 0.767257 2.68027 -1.42255 
498 2 0 1 2.6699 4.50091 6.59173 6.96222 0.0976312 -1.76563 -0.217782 -4.01253 
709 1 1 0 0 13.7599 0.364011 13.131 0.00610404 0.17602 -0.0355841 0 
24 2 0 -1 1.99919 8.97364 2.16789 7.52254 -1.67413 -1.07487 1.08559 0.707249 
475 1 1 0 0 10.1229 4.06843 13.0758 0.0411814 0.149201 -0.125224 0 
635 1 1 0 0 17.5376 1.04323 9.9708 -0.271622 -0.395987 0.0332315 0 
323 1 1 0 0 7.22611 3.55204 11.3194 -0.126607 -0.0667943 -0.165345 0 
851 1 1 0 0 6.77093 6.13783 11.2789 -0.068378 0.236386 0.167942 0 
724 2 0 -1 1.33676 8.77268 6.27735 8.75412 2.7409 1.23657 -1.74117 0.753965 
195 1 1 0 0 1.19463 3.08631 9.79496 0.217493 -0.150569 0.203853 0 
327 1 1 0 0 4.46561 5.93086 12.0064 -0.0879417 -0.399244 0.0622294 0 
554 2 0 1 1.31252 12.2407 8.86242 8.18731 -2.35499 2.05557 3.58419 -1.53894 
329 1 1 0 0 5.40959 4.98294 8.34667 0.359399 -0.311616 -0.171475 0 
801 1 1 0 0 13.3645 9.52414 11.11 0.0101853 -0.136568 -0.143436 0 
153 1 1 0 0 18.5195 1.18524 7.14923 0.199653 0.100158 -0.00210019 0 
183 1 1 0 0 1.37419 1.64898 12.5773 0.154605 0.160295 0.129856 0 
161 1 1 0 0 19.7565 1.26749 10.5072 -0.129779 0.0358583 -0.390327 0 
175 1 1 0 0 18.244 4.49899 7.28974 -0.193879 0.386748 0.0771641 0 
61 1 1 0 0 19.0438 2.26736 7.9039 0.0929572 0.0748801 0.369986 0 
495 1 1 0 0 9.19208 10.0591 9.82754 0.01772 0.121037 0.150904 0 
353 1 1 0 0 3.65509 7.32323 9.01414 -0.124691 -0.0548487 0.13447 0 
512 2 0 -1 2.45364 15.5178 1.68598 13.2636 -0.277417 -3.57538 4.8217 3.54587 
467 1 1 0 0 10.6778 5.60548 11.7362 -0.262585 0.136208 0.173975 0 
618 2 0 1 1.7964 16.603 0.194191 10.7094 -3.74366 -0.20708 -0.477026 -3.58002 
500 2 0 -1 2.34999 4.99815 9.13965 10.8132 5.22354 3.2696 -2.71741 1.62747 
536 2 0 -1 2.02743 14.62 6.31104 10.8654 -2.50818 -4.41912 3.59507 3.0372 
650 2 0 1 1.58059 6.79733 4.86455 12.095 1.93422 -1.7097 1.93029 -0.102255 
93 1 1 0 0 14.4009 7.82619 10.8168 -0.0908546 0.323765 -0.186876 0 
118 2 0 1 1.96197 8.88712 1.47977 7.18754 0.628365 2.74688 -2.7321 -1.86179 
509 1 1 0 0 11.863 6.74799 9.43656 0.140355 -0.231038 0.148496 0 
645 1 1 0 0 11.7714 4.10772 9.98628 0.271933 0.268483 -0.367036 0 
25 1 1 0 0 20.0664 4.04367 12.4808 -0.126238 0.140311 -0.349703 0 
469 1 1 0 0 8.3729 8.86634 7.23292 0.129223 0.387168 -0.0796609 0 
472 2 0 -1 1.86048 10.8254 8.79071 11.2268 -2.48718 0.998477 2.18746 2.82783 
19 1 1 0 0 19.926 6.98401 13.1784 0.189809 -0.459939 0.00905589 0 
254 2 0 1 1.14072 0.0881653 3.85918 12.5132 0.716758 -1.8978 -0.551923 -0.195551 
473 1 1 0 0 8.94572 6.12811 8.16702 -0.320391 0.141591 0.0847217 0 
756 2 0 -1 1.58634 0.836253 0.920174 12.683 -0.803252 0.716519 1.78033 0.172159 
491 1 1 0 0 14.7302 6.01081 9.80548 0.126283 0.069868 0.210094 0 
378 2 0 1 1.83647 0.289224 5.44339 12.152 1.32842 -3.78807 0.409673 0.24789 
854 2 0 1 2.15031 4.40969 6.40927 9.041 -2.59832 1.17545 1.00652 0.0420567 
78 2 0 1 1.87814 15.3316 5.64103 11.561 0.267439 -0.118968 -0.924936 -2.10704 
282 2 0 1 2.24599 11.6613 9.60076 13.3042 1.05043 2.49545 2.30353 -0.296089 
806 2 0 1 1.69016 12.4333 3.7339 10.8258 -0.404799 0.697538 -2.85099 -0.0477145 
298 2 0 1 2.40423 3.09476 4.18509 10.0515 1.00052 0.708834 2.67546 0.565854 
296 2 0 -1 2.3748 14.241 9.14513 11.2861 -2.79955 1.9398 0.462282 -2.14677 
517 1 1 0 0 8.97889 5.89704 9.26786 0.266988 0.0828289 -0.211558 0 
30 2 0 1 2.86695 1.96842 9.18447 10.399 -0.147156 -2.7123 1.51817 0.713562 
354 2 0 1 2.37685 9.64298 6.12339 10.8516 -0.500164 -1.12627 0.632684 1.3874 
43 1 1 0 0 5.88283 1.8044 9.96199 0.0362796 -0.0911905 -0.299006 0 
587 1 1 0 0 17.2053 3.17918 7.21113 -0.0522284 0.239072 0.0241532 0 
783 1 1 0 0 16.339 2.68198 10.7034 -0.197454 -0.098528 0.281866 0 
591 1 1 0 0 15.8457 2.5808 12.6268 -0.121478 0.137903 -0.310912 0 
765 1 1 0 0 15.7295 0.460473 9.96166 0.219488 -0.143157 0.154619 0 
611 1 1 0 0 8.66584 2.58597 7.71336 -0.449849 -0.0562884 -0.459473 0 
237 1 1 0 0 16.6989 8.55062 12.5841 -0.70255 -0.0107771 -0.323687 0 
213 1 1 0 0 3.73679 4.58815 11.6841 0.182352 0.127644 -0.382538 0 
445 1 1 0 0 13.487 2.29074 7.06121 0.368966 0.33792 0.0161434 0 
776 2 0 -1 1.76432 0.340678 3.28794 9.35724 -4.25131 -0.5117 0.0215614 3.20121 
7 1 1 0 0 19.3705 6.14663 6.97215 0.162096 0.0407408 0.00864521 0 
617 1 1 0 0 11.7914 8.45749 11.2952 -0.0836696 0.0325661 -0.268114 0 
548 2 0 -1 2.49899 3.97233 4.69613 11.7219 -1.15328 -2.06678 -0.0425298 0.554154 
680 2 0 -1 1.76797 12.0728 3.0179 7.05644 3.6345 -1.81938 0.694728 2.11382 
238 2 0 1 1.6491 16.721 8.45065 8.4984 0.29572 -0.149406 4.32172 -0.454735 
304 2 0 -1 2.07792 2.41259 9.6854 10.5818 4.23167 3.16529 2.74545 0.136619 
556 2 0 -1 1.68037 5.20771 1.37681 10.945 -1.89788 -0.283801 -0.413731 -0.217723 
639 1 1 0 0 17.9673 4.49367 9.98874 -0.0613064 -0.178038 -0.097134 0 
761 1 1 0 0 13.8452 6.00938 12.768 -0.0219035 0.159819 0.0366107 0 
44 2 0 -1 1.82565 18.6607 2.17968 7.66995 -2.07528 -4.53655 -0.0585066 2.36252 
787 1 1 0 0 3.51549 8.18396 10.7245 0.087957 0.266371 -0.133699 0 
602 2 0 1 2.84547 13.208 0.666626 7.25961 -3.39039 -1.63233 -1.17719 -2.75879 
207 1 1 0 0 9.28273 9.2608 11.7361 0.143951 -0.186797 -0.161529 0 
13 1 1 0 0 17.3733 1.17385 13.4139 -0.321962 -0.00624759 0.163102 0 
746 2 0 1 2.46785 17.0831 3.5534 10.0576 0.956487 -2.71227 -1.76837 6.87138 
401 1 1 0 0 0.66747 4.53769 12.9108 -0.0125075 -0.0965942 0.319739 0 
807 1 1 0 0 0.277423 7.0692 8.58878 0.327051 0.000997434 0.335438 0 
682 2 0 1 1.84963 15.4571 2.19286 11.9932 0.51817 3.00235 0.560037 1.95501 
419 1 1 0 0 8.13935 3.90273 9.86801 -0.122779 0.537177 0.0207917 0 
755 1 1 0 0 12.6746 9.05444 8.03787 0.289394 0.04553 -0.109659 0 
779 1 1 0 0 18.1072 8.27247 10.5431 0.0113566 -0.188591 0.0292512 0 
757 1 1 0 0 12.0201 4.09415 11.4387 0.0727859 -0.194616 0.0122216 0 
632 2 0 -1 2.80277 11.0521 4.16971 10.0831 -0.871984 -2.08572 -0.0310542 -5.792 
788 2 0 -1 1.84266 17.2593 8.63721 12.0895 0.480234 2.17848 0.870286 -1.51436 
570 2 0 1 1.56376 0.629823 2.55163 9.97433 1.16222 2.25387 4.667 -1.91387 
358 2 0 1 1.44994 6.77172 1.33446 6.89475 1.359 1.27599 -0.494193 0.7443 
357 1 1 0 0 6.19529 1.1387 13.1494 0.254869 -0.356343 -0.0125807 0 
176 2 0 -1 1.90672 5.80281 4.39818 7.07388 -2.14789 2.10716 0.194271 2.33786 
833 1 1 0 0 18.2017 10.0427 11.9469 0.10716 0.185084 -0.174765 0 
120 2 0 -1 2.38112 14.8315 5.07427 7.5186 -0.260672 3.41027 -2.74561 1.85746 
356 2 0 -1 2.13444 19.4117 6.37389 12.4109 1.74266 -2.93365 -2.37003 -0.456344 
182 2 0 1 2.19984 10.9104 6.36283 12.2785 -3.12562 -2.25901 2.39585 2.48879 
260 2 0 -1 2.4567 3.45394 4.85698 12.9877 -0.930497 -2.97407 -2.18153 -0.277502 
782 2 0 1 1.89156 18.7537 0.853562 7.9627 1.45731 0.748908 0.0619787 -1.49724 
325 1 1 0 0 5.66644 4.47791 13.3505 0.242147 0.0382231 -0.217047 0 
366 2 0 1 1.50244 13.7954 8.39599 11.2721 -1.69468 -4.08792 1.65637 3.9394 
842 2 0 1 2.2389 17.8064 3.33307 13.5095 -2.81915 0.806959 2.20168 -1.98226 
520 2 0 -1 1.62816 1.09648 8.19179 13.0176 1.56605 2.95622 -3.90929 -0.564673 
272 2 0 -1 1.52632 12.7253 1.36826 13.3599 -1.42516 -0.267822 0.985129 -3.85451 
564 2 0 -1 1.64386 11.7608 9.39077 6.76292 3.74672 -3.85878 -0.0891696 -0.949778 
583 1 1 0 0 12.8728 0.226729 6.7186 -0.0453716 0.150025 0.0966654 0 
130 2 0 1 1.36284 12.1231 5.48221 6.7094 3.43109 -0.0942583 -0.613858 0.578891 
41 1 1 0 0 16.9081 0.731102 16.7655 -0.251247 0.0881074 0.168694 0 
360 2 0 -1 1.36638 9.17957 3.71892 18.2472 -2.48705 2.13778 -4.1152 4.21151 
23 1 1 0 0 2.02808 3.7244 19.2046 -0.171197 0.05488 0.169669 0 
413 1 1 0 0 8.30081 0.969098 19.0474 -0.00635349 -0.249354 0.11504 0 
200 2 0 -1 2.38012 16.9825 4.1248 17.9894 3.81228 0.785178 -2.47626 -1.11583 
795 1 1 0 0 15.8876 6.49633 17.7813 0.229999 -0.373418 0.194389 0 
855 1 1 0 0 18.2067 3.48589 13.9592 -0.107794 -0.158045 0.0653965 0 
194 2 0 1 1.8344 0.0356442 10.0635 15.789 0.204566 4.08863 -4.01802 2.32478 
839 1 1 0 0 3.50063 0.0426555 14.5407 0.0993911 -0.121766 -0.156758 0 
610 2 0 1 2.15313 0.280065 0.471956 19.3473 1.66305 1.07034 0.391161 1.30124 
47 1 1 0 0 4.25017 5.19142 13.7261 -0.218975 -0.020733 -0.332819 0 
370 2 0 1 1.92706 8.64509 7.46099 19.0417 -1.29762 2.1776 -2.6931 -0.0952137 
49 1 1 0 0 0.670048 3.97994 16.705 0.35353 0.111025 0.0533917 0 
700 2 0 -1 1.77387 6.13496 9.85365 15.0174 -0.730072 -0.485533 -2.51242 -1.73893 
438 2 0 1 2.37942 8.51003 4.93769 16.4354 1.47492 0.406163 2.56717 5.56152 
115 1 1 0 0 2.78159 9.04503 14.1905 -0.0859261 0.0434473 0.152869 0 
69 1 1 0 0 3.15317 7.17326 19.2357 -0.00455938 0.162623 -0.115458 0 
685 1 1 0 0 10.0706 9.0508 14.1638 0.0414695 -0.0892749 0.0195495 0 
112 2 0 -1 1.91866 4.45153 8.60635 19.3648 2.25095 1.90993 -3.81427 2.21229 
532 2 0 -1 2.32859 1.25487 1.97744 18.8119 1.04988 0.781379 -3.96197 1.75612 
138 2 0 1 1.6912 8.48681 0.998086 18.5306 1.23705 0.417001 0.98517 -1.38974 
813 1 1 0 0 11.1266 7.98128 18.2131 0.238897 0.130406 0.147471 0 
84 2 0 -1 1.93506 8.15521 1.76434 16.9219 2.21859 -1.15667 2.29623 0.0223685 
811 1 1 0 0 18.7818 9.29283 16.0504 0.177217 0.487052 0.159628 0 
382 2 0 1 2.89421 10.6222 9.24322 16.6034 1.22256 2.91891 2.37017 1.97874 
198 2 0 1 2.8698 11.3785 4.08748 15.9761 0.887376 1.0891 0.3613 0.367336 
771 1 1 0 0 19.0845 8.81971 17.0212 0.465937 -0.211651 0.240923 0 
552 2 0 -1 2.04962 9.60239 0.871878 16.7442 -0.351868 -2.51263 0.746042 -0.938674 
846 2 0 1 2.28762 16.8261 3.18971 17.9696 -2.94112 3.14788 1.34914 2.11929 
240 2 0 -1 1.70378 19.6925 3.89139 17.1989 -1.9767 -0.825395 0.365865 0.765844 
187 1 1 0 0 8.57527 1.62119 16.024 0.127451 -0.433446 0.225856 0 
252 2 0 -1 1.88624 5.19828 3.67561 13.7619 -1.31057 1.56713 0.285632 2.83928 
189 1 1 0 0 19.8102 4.46737 15.3383 0.0510189 0.0983473 0.085075 0 
267 1 1 0 0 4.06551 3.60282 19.5136 0.21604 0.349608 -0.215708 0 
58 2 0 1 1.81121 14.3699 4.70716 14.1236 -5.67132 1.09521 0.687645 -0.506836 
386 2 0 1 1.68118 6.25628 6.61618 15.8689 -1.2545 -1.03753 -5.06721 -0.780422 
586 2 0 1 1.5767 19.7561 4.66022 15.8563 2.96108 0.983931 -1.28404 4.23824 
862 2 0 1 1.75411 16.3728 0.357389 17.0698 -2.06642 -1.17617 0.756968 3.54767 
693 1 1 0 0 15.1138 5.04524 16.9697 -0.105033 -0.0843544 0.214943 0 
37 1 1 0 0 16.0665 5.30969 13.6315 -0.187098 0.277857 -0.153563 0 
171 1 1 0 0 16.7617 9.64036 19.7765 0.0901287 0.0304072 -0.123682 0 
735 1 1 0 0 0.361609 2.54405 17.8004 0.196382 -0.213221 0.311381 0 
215 1 1 0 0 5.43902 6.60062 15.512 -0.296212 0.229051 0.00610184 0 
159 1 1 0 0 2.9979 2.72184 15.4057 -0.111821 -0.0071862 0.140958 0 
217 1 1 0 0 19.9118 9.97744 19.8801 -0.399862 0.254279 0.0691059 0 
636 2 0 -1 1.42538 2.87118 8.48542 14.4805 0.412517 -1.54791 -2.99195 0.606815 
530 2 0 1 1.41183 19.1157 8.60476 17.3862 -0.0209787 -0.542101 -3.36072 4.26649 
285 1 1 0 0 5.61611 5.92582 18.2157 0.557529 -0.0582122 0.475353 0 
494 2 0 1 1.34963 2.10871 3.63075 14.1622 -0.116624 -1.17745 -6.90872 -0.826511 
431 1 1 0 0 7.75476 3.20937 17.1972 0.344102 0.223428 0.421154 0 
311 1 1 0 0 12.4306 2.27962 16.7999 0.202482 -0.103832 0.22458 0 
34 2 0 1 2.1622 12.9384 0.16904 14.7868 1.91383 2.41968 -0.757743 -2.20136 
486 2 0 1 2.08307 9.08644 4.17681 19.7267 -0.900382 -1.34017 2.21058 -0.977826 
444 2 0 -1 2.3783 16.4222 2.98022 19.1364 -0.241275 0.977222 -2.43021 -4.18241 
580 2 0 -1 2.31309 11.8507 7.36707 15.5379 -5.64998 -0.738244 3.28384 -5.80623 
698 2 0 1 1.80672 19.6858 0.234888 18.0483 0.228161 -3.31934 0.599628 2.90413 
186 2 0 1 2.08188 2.62521 7.40273 15.1061 1.61528 -0.453614 0.545475 -1.63842 
170 2 0 1 1.75406 7.44829 1.69644 15.5993 -1.14758 -1.22974 0.785833 1.31461 
335 1 1 0 0 12.1711 4.30086 14.8713 0.0166561 0.0763063 -0.161744 0 
256 2 0 -1 2.70899 10.8004 4.26528 13.9828 -0.810182 -2.47747 -0.189218 0.0554909 
328 2 0 -1 2.42952 18.2554 9.03395 16.0679 1.06117 0.507158 -2.87432 -4.64042 
675 1 1 0 0 13.3985 0.946428 18.857 0.0778954 0.244378 -0.282549 0 
355 1 1 0 0 9.27566 4.69719 18.298 0.170774 -0.264091 -0.0248176 0 
764 2 0 -1 1.47915 14.6162 4.89555 13.7289 1.1241 -0.315264 0.408782 -4.13319 
769 1 1 0 0 8.85498 3.48992 18.3134 0.0260596 -0.123143 -0.298689 0 
546 2 0 1 1.70651 4.31566 1.46556 14.3553 1.12166 2.35415 0.47384 -2.24431 
858 2 0 1 2.07573 0.320633 0.322119 13.4487 -0.619687 0.343927 -1.91099 1.0825 
408 2 0 -1 2.05711 2.46652 1.06353 14.0955 0.698127 -1.96091 -5.07632 5.32207 
717 1 1 0 0 10.3807 1.85379 14.3531 -0.0553539 -0.110131 0.300625 0 
490 2 0 1 2.71363 3.24523 2.35422 19.4782 2.72191 -1.92026 1.23826 -1.24066 
381 1 1 0 0 1.13953 8.61245 15.027 -0.518829 -0.152587 -0.160443 0 
459 1 1 0 0 13.0173 3.93697 18.5957 -0.279189 0.384936 0.0247328 0 
27 1 1 0 0 0.784006 7.13306 18.2031 0.229471 0.174781 0.0943513 0 
446 2 0 1 1.68505 18.4681 7.30004 19.8454 0.948215 0.239818 2.21054 1.27436 
455 1 1 0 0 10.1366 6.12551 16.5196 0.00480997 -0.0733332 0.13508 0 
571 1 1 0 0 5.2124 0.215544 15.8683 0.0716763 -0.013207 -0.599639 0 
457 1 1 0 0 14.2958 2.56018 17.46 0.131012 -0.0424454 0.167168 0 
864 2 0 -1 1.95123 18.5122 2.80193 13.6125 -0.559384 3.18865 -3.0633 3.20808 
497 1 1 0 0 1.8009 0.428649 17.5473 -0.103902 0.0403544 -0.411798 0 
676 2 0 -1 2.03529 10.3332 6.9869 13.6138 -1.28706 -2.48926 -0.39429 3.46306 
50 2 0 1 2.92518 13.079 8.05692 18.5575 -0.370922 -2.82903 1.12634 -1.25411 
628 2 0 -1 2.82535 15.6498 7.53771 16.578 3.04368 -0.547866 1.55547 -0.458124 
845 1 1 0 0 12.8381 7.69433 18.8563 -0.0668836 0.0816437 -0.0979135 0 
350 2 0 1 1.57442 15.7221 8.93705 19.421 -1.47412 0.419708 -0.769949 -4.74476 
791 1 1 0 0 18.0306 5.83046 17.8282 -0.266463 0.0536711 -0.0712307 0 
689 1 1 0 0 0.229541 6.52907 15.5306 0.0150981 0.0215501 0.0114989 0 
606 2 0 1 3.09578 6.07786 7.70855 19.5363 -2.18037 1.18969 1.34406 -1.14234 
508 2 0 -1 2.06744 5.3582 6.54478 14.0941 -3.88418 3.39017 -4.73723 2.11469 
501 1 1 0 0 7.0653 6.1133 15.5729 0.229148 -0.257793 0.0669094 0 
379 1 1 0 0 5.4858 7.91655 17.8082 -0.117439 -0.0689972 0.652265 0 
503 1 1 0 0 13.1662 9.62731 13.4412 -0.229245 0.118886 -0.0317169 0 
818 2 0 1 1.48474 17.9516 1.23063 20.0098 -1.79298 -1.80864 1.72936 0.984084 
772 2 0 -1 2.24666 7.10354 5.96784 15.9986 2.49382 -2.41018 0.0470247 3.09618 
499 1 1 0 0 15.0492 8.10672 14.0447 0.0145197 0.170722 0.00868694 0 
211 1 1 0 0 9.42403 6.20096 14.1802 -0.291546 -0.205775 0.258735 0 
40 2 0 -1 2.45996 0.227977 6.80249 18.4135 1.72056 -7.18659 -1.97027 1.20438 
595 1 1 0 0 16.6262 1.67637 18.4191 -0.113737 -0.635569 -0.0156189 0 
809 1 1 0 0 13.8049 9.84217 15.7749 0.0129115 -0.195381 -0.0793583 0 
615 1 1 0 0 11.9186 7.33344 13.5905 0.279597 0.0653475 0.178726 0 
278 2 0 1 1.68619 0.531835 3.68279 17.3426 5.21472 -0.305759 -1.22759 -0.483903 
52 2 0 -1 2.5305 12.9379 8.69176 20.1712 1.25594 -2.8063 2.02408 0.124915 
730 2 0 1 2.44738 11.766 8.19824 19.3261 -0.568109 0.156382 -0.411077 0.705076 
286 2 0 1 1.8437 14.8439 5.13393 17.0043 -2.03847 -4.7085 2.48815 -4.40783 
471 1 1 0 0 14.1115 7.48517 16.8194 -0.107916 -0.0759888 0.134302 0 
719 1 1 0 0 19.9234 0.327275 18.07 0.413479 -0.0579939 -0.0266126 0 
63 1 1 0 0 3.74975 8.07938 15.2334 -0.00070021 0.10123 0.268784 0 
623 1 1 0 0 15.7802 8.8906 18.6644 0.274631 0.189601 0.0944431 0 
627 1 1 0 0 16.6162 4.05025 17.957 -0.155091 -0.00997766 0.191094 0 
550 2 0 1 1.95576 15.0153 8.19303 14.235 2.80739 2.6203 1.33379 -2.26986 
291 1 1 0 0 7.54083 5.38721 17.3753 -0.210473 0.0300362 0.0718904 0 
3 1 1 0 0 18.0363 1.55096 19.1598 -0.316341 -0.143916 -0.00203528 0 
525 1 1 0 0 5.54604 10.0076 15.6408 -0.0791233 0.247841 -0.0208286 0 
219 1 1 0 0 10.2579 9.66543 18.7832 0.31584 0.0368923 -0.262998 0 
691 1 1 0 0 12.029 0.429015 13.4643 0.138749 -0.0174729 -0.17111 0 
647 1 1 0 0 14.4594 5.0185 14.2669 -0.12096 0.0391692 0.021077 0 
60 2 0 -1 2.0408 1.84055 6.49484 18.7365 -3.20981 2.83347 -1.44696 0.435985 