ITEM: TIMESTEP
12000
ITEM: NUMBER OF ATOMS
864
ITEM: BOX BOUNDS pp pp pp
0.0000000000000000e+00 2.0107868000000000e+01
0.0000000000000000e+00 2.0107868000000000e+01
0.0000000000000000e+00 2.0107868000000000e+01
ITEM: ATOMS id type q c_1a[1] c_1a[2] x y z vx vy vz c_1a[3] 
376 2 0 -1 1.4136 7.29562 2.5008 3.18113 0.750927 -5.44504 0.332153 0.970188 
479 1 1 0 0 12.679 1.08588 0.146874 0.157917 0.0665128 -0.234455 0 
1 1 1 0 0 13.5027 2.72587 1.83121 0.196746 0.286745 0.0435275 0 
388 2 0 -1 2.56225 17.6811 7.91031 0.00706793 -4.83842 1.06268 -2.50697 1.18641 
512 2 0 -1 1.6531 16.569 1.98826 5.32147 -1.93808 4.08038 3.09361 5.17242 
128 2 0 -1 2.21906 7.12517 9.15247 2.80226 3.88159 -6.16597 1.27799 -2.16356 
452 2 0 -1 1.88227 3.57961 6.67924 3.88533 0.724749 1.42801 4.37671 2.43894 
752 2 0 -1 1.89068 12.8768 3.13679 4.03029 -2.3028 5.56601 0.787686 2.10095 
313 1 1 0 0 9.85628 2.12198 2.35554 0.219398 -0.0239027 0.159663 0 
459 1 1 0 0 9.63071 6.95102 1.22577 -0.0426766 0.083312 0.243255 0 
486 2 0 1 2.02632 4.42328 3.87705 1.87156 -0.252211 -1.50367 2.50009 1.56829 
174 2 0 1 1.56136 10.6132 0.528066 6.20776 1.17446 0.619094 0.460716 1.0566 
51 1 1 0 0 1.50147 4.78981 4.66104 0.0559417 -0.137705 0.240007 0 
294 2 0 1 2.54931 4.18555 7.87511 1.50862 -0.842165 -0.689885 0.155381 1.56992 
178 2 0 1 1.74974 2.60702 3.43063 4.99099 1.49285 -0.0689441 4.59294 -0.157214 
789 1 1 0 0 19.4042 4.46326 2.9167 -0.104012 0.027539 0.15463 0 
820 2 0 -1 2.60794 16.6078 7.4805 5.01635 2.77549 -0.50064 3.13298 0.598441 
359 1 1 0 0 13.0829 6.17046 2.40038 -0.10354 0.205238 -0.247385 0 
825 1 1 0 0 2.7217 8.40002 4.55276 0.250796 0.0887552 0.328605 0 
641 1 1 0 0 6.67129 6.30438 4.58407 -0.185083 -0.199812 0.0645317 0 
82 2 0 1 1.65527 18.5435 3.47425 2.43325 0.86145 -3.71789 2.34715 1.56877 
485 1 1 0 0 15.8192 9.5617 1.32733 -0.102084 -0.0210495 0.0666264 0 
293 1 1 0 0 9.24071 2.73432 5.4446 -0.283012 -0.0335372 0.181791 0 
430 2 0 1 1.94082 3.57626 6.12607 5.219 -2.66539 1.71537 1.4091 -3.45262 
106 2 0 1 1.65611 15.5426 9.29126 1.87271 -1.52983 2.64145 1.22166 1.09967 
398 2 0 1 2.05252 14.9095 2.06473 3.9798 -2.95819 -1.90834 -1.49273 -0.606225 
856 2 0 -1 2.87501 10.0711 7.89865 0.05418 -3.12271 -1.59937 -1.37338 -1.10293 
366 2 0 1 2.35098 18.7096 6.03274 5.19733 -0.562402 1.26403 0.0358268 -0.479313 
163 1 1 0 0 10.8165 6.68449 5.80318 -0.193976 0.273458 0.447599 0 
33 1 1 0 0 3.58164 5.09022 6.51923 -0.146078 0.0725793 0.0207579 0 
45 1 1 0 0 3.9565 6.3274 4.8345 -0.128915 0.444584 0.193394 0 
227 1 1 0 0 14.5914 8.48132 4.70607 -0.0738985 -0.144802 0.202936 0 
386 2 0 1 1.70189 11.3864 7.39019 2.63944 -1.15675 -2.14564 0.228043 -2.77075 
421 1 1 0 0 3.82342 9.85448 4.72781 -0.221513 -0.124943 -0.505894 0 
728 2 0 -1 1.65568 19.17 6.6069 4.15087 -0.862429 -2.06063 -4.12344 -1.50792 
150 2 0 1 2.14659 0.577151 9.93454 5.62537 -3.08329 -0.555902 -1.16735 -4.05454 
400 2 0 -1 1.55706 6.84978 6.94386 6.50724 0.247751 -3.51911 -0.628388 2.7024 
776 2 0 -1 1.64511 0.267409 0.865941 6.17697 -0.947727 0.704474 1.08891 0.983983 
197 1 1 0 0 2.88822 9.58636 1.11078 -0.170169 0.0510645 -0.275207 0 
740 2 0 -1 1.97422 10.1773 3.59979 2.00366 2.37278 -1.71758 -2.29119 5.59761 
408 2 0 -1 2.00799 0.0263487 7.70427 0.343852 -3.03532 4.97578 -0.943275 5.93062 
701 1 1 0 0 7.30665 1.92475 0.165981 -0.187353 0.252001 -0.285331 0 
279 1 1 0 0 4.08808 0.0470523 0.2841 0.103496 -0.0936183 -0.538728 0 
626 2 0 1 1.69344 7.82467 2.72821 1.00393 1.10453 1.5111 1.24531 0.238101 
81 1 1 0 0 13.1462 6.68305 6.05865 -0.241266 0.0425684 -0.0275259 0 
316 2 0 -1 2.03881 4.58786 9.64896 6.37985 -2.55774 0.8223 -0.297611 -0.950447 
490 2 0 1 1.69733 7.51347 3.24848 4.104 -4.30134 -0.152481 1.93016 3.931 
193 1 1 0 0 18.8868 6.52144 4.76967 0.471065 -0.191677 0.133748 0 
840 2 0 -1 1.82982 6.1806 1.65638 5.53794 -0.133214 -5.17303 -0.668508 -5.36376 
540 2 0 -1 1.7927 4.08064 7.81964 1.21168 -1.94058 0.341768 0.521285 -1.94824 
530 2 0 1 2.10004 8.10012 5.83669 3.82373 2.84817 2.73106 -0.905705 2.04913 
254 2 0 1 1.74282 17.4356 2.80155 4.01223 -5.01506 -0.951369 0.0870485 3.5889 
142 2 0 1 2.10374 13.3059 1.43956 0.244628 -0.589776 -1.47208 -0.0335353 -0.387598 
97 1 1 0 0 11.4919 8.80316 6.61028 -0.418661 -0.232516 0.210022 0 
662 2 0 1 1.50545 11.6288 2.26102 3.63278 2.84938 0.962382 1.23005 -1.48198 
131 1 1 0 0 17.7528 6.74193 0.320128 -0.00720952 0.43959 -0.0353406 0 
514 2 0 1 1.69114 11.0758 8.37197 6.18887 0.577568 -0.0411854 -0.252064 -2.74117 
710 2 0 1 2.73805 16.2432 1.07635 6.27306 3.50862 -2.93002 -1.07444 -1.70861 
405 1 1 0 0 6.86769 6.80533 6.40223 0.0558568 -0.211251 0.2874 0 
9 1 1 0 0 0.872299 0.369808 2.66844 -0.0639899 -0.263718 0.385587 0 
339 1 1 0 0 11.6157 2.5222 3.61048 -0.320532 -0.251039 0.0996422 0 
188 2 0 -1 1.78306 0.999507 1.8634 2.95117 1.46755 -1.76975 1.88621 0.891684 
192 2 0 -1 2.21052 18.3685 2.63121 3.78188 -7.37863 -0.972684 -1.05299 -0.656608 
627 1 1 0 0 18.6933 3.75663 1.23362 0.175808 0.0406383 0.079829 0 
363 1 1 0 0 18.31 9.14447 6.04139 0.0820424 -0.251608 -0.161223 0 
101 1 1 0 0 3.3406 7.1736 1.36701 0.204603 -0.01764 0.14349 0 
49 1 1 0 0 2.93503 4.05283 0.728871 -0.238705 0.0651454 -0.0629183 0 
864 2 0 -1 1.90349 9.70052 0.600745 1.47196 -0.738329 0.946681 -0.175786 3.74397 
508 2 0 -1 1.93379 2.06687 9.18771 5.67103 -1.34895 2.70694 1.57689 -0.144233 
441 1 1 0 0 2.21556 1.78926 5.2692 -0.334174 0.0516676 -0.10755 0 
379 1 1 0 0 7.87162 7.01566 2.82063 0.121734 0.135485 -0.171804 0 
438 2 0 1 2.04359 15.6028 6.53087 1.46115 4.20498 -0.0704219 -0.604071 -0.00184762 
208 2 0 -1 1.58812 15.8742 9.69854 2.31605 -0.628499 1.49719 0.41879 2.26862 
108 2 0 -1 1.54351 13.8904 5.40913 2.68593 -0.175441 -3.41179 -3.95374 -3.03845 
355 1 1 0 0 10.409 4.4066 0.158234 -0.145875 -0.124307 0.295195 0 
616 2 0 -1 1.74109 8.86783 6.35874 3.04391 0.140706 -2.58938 -0.435804 -1.11906 
153 1 1 0 0 18.3024 3.35384 3.951 0.0661489 0.226549 -0.188433 0 
773 1 1 0 0 18.5446 0.73985 0.654679 0.0325238 -0.0942164 -0.0277301 0 
90 2 0 1 1.80109 -0.207016 0.125745 6.07824 -3.38627 -0.23836 2.2294 2.27033 
62 2 0 1 1.79213 2.12339 1.04339 3.21749 -3.832 -0.529273 -0.411091 4.57367 
116 2 0 -1 2.42478 14.6395 8.70647 4.48521 3.01628 2.32585 -1.91327 1.57516 
633 1 1 0 0 12.916 3.90706 4.1033 0.22522 0.0368175 0.166325 0 
755 1 1 0 0 17.3907 6.62108 4.61704 -0.137294 -0.22145 -0.244537 0 
233 1 1 0 0 19.6716 7.54465 1.7764 0.508633 -0.0124394 0.00539929 0 
483 1 1 0 0 8.86604 4.05325 1.80767 0.24966 -0.371528 -0.159119 0 
727 1 1 0 0 18.1451 2.55618 2.65314 -0.0851334 -0.243075 0.0930108 0 
611 1 1 0 0 7.54056 0.126877 4.4002 0.131728 -0.00126875 -0.131952 0 
343 1 1 0 0 8.98315 7.98749 3.91444 0.316801 -0.201213 0.204511 0 
845 1 1 0 0 16.2946 6.48895 0.8144 0.0885729 -0.14845 0.297592 0 
781 1 1 0 0 0.408918 0.286236 5.417 -0.0153348 -0.272267 -0.00607338 0 
751 1 1 0 0 4.73731 7.76738 2.31665 -0.122173 0.119096 -0.473272 0 
706 2 0 1 2.50206 18.1095 9.50025 3.16329 -0.68851 0.0090103 -1.36122 -0.442699 
637 1 1 0 0 16.7785 0.639226 5.23428 0.37647 0.0857057 0.0904696 0 
377 1 1 0 0 0.646491 10.0239 2.40915 0.141766 0.161673 -0.27317 0 
513 1 1 0 0 3.88718 3.20965 3.0417 0.0146489 0.0398679 0.480093 0 
644 2 0 -1 1.97219 3.88371 3.47085 1.47085 2.17808 3.62607 -0.0218941 2.12843 
579 1 1 0 0 16.3653 0.930406 3.3453 0.366983 -0.0092776 0.00314091 0 
322 2 0 1 3.50086 8.39512 1.1483 4.30034 0.733846 0.113929 -3.72272 0.633894 
601 1 1 0 0 7.36186 2.92511 2.32383 0.213414 -0.165112 0.137394 0 
236 2 0 -1 2.3022 10.2419 2.61444 5.992 2.92505 -0.763946 -1.49883 5.49706 
502 2 0 1 3.16506 2.72938 9.54521 2.17024 0.465428 0.974693 -0.348621 2.13875 
98 2 0 1 2.88671 2.59767 8.24446 0.772566 -2.58234 5.55418 1.238 4.9981 
519 1 1 0 0 17.9837 9.0581 1.12291 -0.357032 -0.084472 -0.0347714 0 
624 2 0 -1 1.68144 18.4352 3.93475 1.28872 2.66412 -2.54083 2.25467 -0.477852 
607 1 1 0 0 16.6303 2.87632 5.08216 0.185467 -0.312803 -0.0159035 0 
669 1 1 0 0 12.0245 1.5884 2.23195 -0.0224847 0.171732 0.0592365 0 
7 1 1 0 0 0.560916 9.19261 5.0978 0.317161 0.151068 -0.175248 0 
361 1 1 0 0 11.8812 7.17487 3.69173 0.145099 0.214794 0.218522 0 
48 2 0 -1 1.36503 12.2061 1.78842 1.78767 -0.587083 2.57532 2.28465 -0.788528 
531 1 1 0 0 16.0786 1.6986 1.88756 -0.0382574 -0.365253 0.159281 0 
213 1 1 0 0 4.9565 3.5159 6.41821 -0.0354965 -0.307931 0.0438272 0 
439 1 1 0 0 4.49346 1.24016 2.67793 0.039386 -0.351871 -0.111137 0 
631 1 1 0 0 9.24173 5.87953 3.1062 -0.127318 -0.21577 0.178751 0 
583 1 1 0 0 15.8471 2.1654 6.50175 0.190689 -0.298347 0.0805867 0 
617 1 1 0 0 7.71037 9.93333 6.36937 -0.296766 0.149992 -0.302031 0 
166 2 0 1 2.44015 12.7295 7.13599 4.78298 -1.13551 -0.291964 0.494651 2.55268 
850 2 0 1 2.12741 10.6431 5.1981 5.98268 -2.19651 -1.65761 0.306871 3.8246 
55 1 1 0 0 16.8267 9.05609 3.11608 -0.0760509 -0.25022 0.129475 0 
492 2 0 -1 2.57875 15.2133 2.48839 0.278804 2.81872 -0.883848 -3.71215 3.00877 
250 2 0 1 2.0238 8.8644 3.79753 0.487312 1.55722 1.37626 -3.66809 -0.572358 
135 1 1 0 0 5.45596 0.936266 5.29189 0.0349948 0.341222 -0.125598 0 
589 1 1 0 0 14.9137 9.607 2.70363 -0.440049 0.230221 -0.287861 0 
442 2 0 1 2.06476 8.62442 8.75907 3.21928 -3.62605 -0.746719 -1.65266 1.92769 
83 1 1 0 0 2.72885 9.0641 6.49392 -0.386625 -0.0771809 0.195762 0 
747 1 1 0 0 6.871 3.0547 3.94969 0.362324 -0.14741 -0.354854 0 
190 2 0 1 2.2897 13.6759 4.94416 2.93687 2.15736 1.14831 -3.08802 -2.90243 
749 1 1 0 0 13.9686 5.92668 3.11027 -0.26645 0.12896 0.219465 0 
656 2 0 -1 2.68717 4.05489 0.340678 2.566 1.0232 -2.88211 3.43134 -0.255757 
100 2 0 -1 2.96406 2.77223 4.41729 5.77097 -1.38525 -2.29334 0.968891 1.25231 
92 2 0 -1 2.44148 11.6517 6.59831 5.84688 0.224622 -1.67303 0.835703 -0.954583 
54 2 0 1 1.95766 6.33829 8.37676 6.23623 -1.2087 -1.97563 2.68949 -2.05499 
424 2 0 -1 1.74023 5.21536 4.93713 6.21113 -0.220906 -1.68953 1.63998 -4.17217 
330 2 0 1 1.75095 19.167 7.14118 1.50867 1.67699 -3.54379 3.59536 -0.0633284 
766 2 0 1 2.58965 6.12878 0.215807 4.30419 1.00874 0.0604637 2.19414 3.68288 
347 1 1 0 0 4.20127 6.59908 12.2535 0.137432 -0.390649 -0.263734 0 
303 1 1 0 0 12.5171 2.68078 10.2647 0.10704 -0.234042 -0.0656091 0 
489 1 1 0 0 8.37631 2.99826 8.01253 0.153295 -0.0341248 0.106148 0 
195 1 1 0 0 7.41996 0.410522 12.0821 0.434658 0.0369947 0.0646199 0 
630 2 0 1 1.93617 17.1534 9.16899 7.82929 -1.86781 -2.2287 -0.222494 -0.421749 
570 2 0 1 1.94426 5.32885 1.80882 7.41441 5.32876 -1.50355 -0.812223 -0.646504 
320 2 0 -1 2.01665 1.89583 6.44231 9.10392 0.286408 0.413743 -0.907233 -4.2846 
308 2 0 -1 1.8895 18.336 8.64645 8.26667 1.27728 5.56647 -2.35839 -4.14549 
497 1 1 0 0 1.80295 1.0498 12.6646 -0.302549 0.0473328 -0.230805 0 
335 1 1 0 0 10.4173 5.0187 12.8213 0.0682697 0.109564 -0.4496 0 
226 2 0 1 2.37871 16.6763 9.0323 13.3412 1.27014 -0.418234 2.2764 -2.97642 
830 2 0 1 1.79188 7.53846 0.813011 11.0939 2.79161 0.816014 -1.91407 4.37892 
760 2 0 -1 1.86016 19.0241 2.34466 9.14733 -0.0950615 1.40824 0.313264 -1.80734 
432 2 0 -1 1.88329 18.8119 4.29507 7.28824 -3.95023 0.201049 -0.654683 2.37356 
199 1 1 0 0 3.4286 9.48359 10.2073 -0.061496 0.176956 0.344178 0 
210 2 0 1 1.41763 3.84232 0.912028 12.3513 -2.51436 2.5969 -2.79826 -0.563142 
191 1 1 0 0 15.5155 5.22138 6.81386 0.026694 0.0451212 -0.00570985 0 
726 2 0 1 2.79839 7.72615 10.3933 10.1767 0.73589 3.06037 1.45448 3.42506 
65 1 1 0 0 14.6716 7.13576 11.2537 -0.336718 -0.550564 -0.0320621 0 
640 2 0 -1 1.88064 15.3356 7.27793 13.1496 -3.97221 -3.14551 0.669973 -0.709632 
85 1 1 0 0 3.58843 1.11741 12.3771 0.197732 -0.254825 0.335703 0 
643 1 1 0 0 0.0842229 0.215376 10.5812 -0.1404 -0.0863516 0.0580555 0 
553 1 1 0 0 9.31622 1.49995 12.7714 -0.138711 0.493099 -0.293641 0 
460 2 0 -1 2.66003 1.76981 4.71062 11.4913 -0.529413 -1.06007 -1.49909 0.965821 
842 2 0 1 1.83496 9.87614 3.01719 8.23907 0.894162 0.0174645 0.0938619 -1.25172 
89 1 1 0 0 1.47286 4.45217 12.8171 -0.31079 0.00266429 0.148556 0 
13 1 1 0 0 13.9533 1.33677 12.8529 -0.150469 -0.233636 -0.190136 0 
546 2 0 1 1.6428 7.3749 5.87549 8.5501 -0.312206 -0.547836 0.266214 -2.98391 
495 1 1 0 0 9.51874 8.63057 13.0394 -0.266667 -0.265013 0.171203 0 
378 2 0 1 2.31085 18.9254 3.54962 7.71961 2.17402 1.77318 2.54486 -0.448612 
181 1 1 0 0 0.445407 7.79817 8.28969 -0.0062171 0.354451 -0.0222628 0 
94 2 0 1 1.73158 14.2928 5.38004 7.25125 -0.0429857 -2.60866 0.764797 0.628604 
120 2 0 -1 2.148 8.13765 9.28947 9.70099 1.46376 -4.50546 -5.15024 -1.87072 
729 1 1 0 0 9.87337 2.56843 8.91918 0.276089 -0.135107 -0.31747 0 
357 1 1 0 0 7.64367 0.95169 9.36014 -0.110245 -0.0710181 -0.385066 0 
415 1 1 0 0 8.57257 5.36639 9.61241 0.0564916 0.173701 0.0148508 0 
515 1 1 0 0 10.4086 6.08702 6.98775 -0.32418 -0.136129 0.346866 0 
365 1 1 0 0 5.55278 8.84933 7.24965 0.139517 -0.105135 0.00816745 0 
256 2 0 -1 1.86814 13.6015 0.655257 12.122 1.31497 -2.43013 -2.41683 -0.718808 
354 2 0 1 1.51367 2.60081 6.01612 9.38214 -2.67692 -0.521687 2.42587 -0.389764 
468 2 0 -1 2.01882 8.55939 3.3871 7.52376 -1.85828 -1.35844 -2.09508 3.18719 
661 1 1 0 0 12.4698 9.79029 10.8838 0.129267 0.069385 0.0198186 0 
157 1 1 0 0 18.4272 2.65354 7.60317 -0.259501 0.285656 -0.0602962 0 
697 1 1 0 0 7.37702 2.41904 7.27472 -0.227216 0.0201565 -0.0946347 0 
670 2 0 1 2.69778 11.7517 6.36363 10.4383 -1.66369 -2.14312 3.59346 0.276688 
782 2 0 1 2.29307 8.17036 2.70138 8.10474 -0.80754 0.944872 -1.83137 3.22148 
47 1 1 0 0 19.3593 7.34949 11.6917 -0.0291698 0.0463067 -0.240367 0 
487 1 1 0 0 11.8986 5.22359 6.8933 0.213628 -0.178417 -0.0575673 0 
709 1 1 0 0 16.2398 5.59057 9.86219 0.176163 0.334263 -0.325024 0 
305 1 1 0 0 5.89534 9.91889 9.12957 -0.017745 -0.573788 -0.0528312 0 
475 1 1 0 0 12.7789 5.89307 10.9362 0.306602 0.392 -0.096424 0 
635 1 1 0 0 17.6606 1.97637 9.19092 -0.260488 0.132871 0.0930213 0 
323 1 1 0 0 6.11726 2.86655 9.61369 -0.178873 -0.0708987 -0.20583 0 
851 1 1 0 0 2.86393 5.14333 11.2411 -0.468487 -0.104537 -0.395698 0 
183 1 1 0 0 4.24495 3.47225 11.8726 -0.0169372 -0.0308994 -0.275627 0 
634 2 0 1 2.96598 17.5752 4.62037 10.948 -1.24447 1.85752 -1.36984 0.261347 
327 1 1 0 0 6.28109 5.13721 10.3825 0.0584707 0.267852 -0.391561 0 
804 2 0 -1 2.57335 3.54403 0.703693 9.17223 -0.818078 -0.198024 1.22059 2.32407 
329 1 1 0 0 6.33172 5.70282 7.27821 -0.135543 0.15725 0.144199 0 
282 2 0 1 2.71317 12.6255 1.82556 9.21201 -1.40203 -2.47834 -0.905955 2.41269 
576 2 0 -1 1.77541 11.5597 2.05555 11.6614 0.869783 -1.76865 1.51883 -1.4769 
757 1 1 0 0 13.6465 0.236013 11.1446 0.118239 -0.307898 -0.0830431 0 
177 1 1 0 0 3.9887 0.37203 7.61868 0.0802128 0.320322 0.0615137 0 
175 1 1 0 0 16.6582 9.54055 9.95076 -0.054817 0.261688 -0.01489 0 
61 1 1 0 0 1.21897 5.34838 9.33377 -0.0751357 0.0849267 0.279917 0 
392 2 0 -1 1.76531 6.3388 4.13156 10.9262 1.97142 2.66222 3.2956 -4.72701 
353 1 1 0 0 3.4652 3.93979 9.2865 0.321187 -0.559476 0.00959661 0 
381 1 1 0 0 13.9972 9.02183 12.3646 -0.327256 0.00382412 -0.0275533 0 
22 2 0 1 1.3775 13.9847 9.57683 12.8014 -2.39187 2.58138 -0.898868 -0.690647 
463 1 1 0 0 11.5239 2.32727 6.8844 -0.0902204 0.296261 -0.196427 0 
484 2 0 -1 2.05548 3.11888 5.46189 11.7101 -3.81946 2.18773 -0.142226 4.96475 
563 1 1 0 0 17.3446 9.44894 8.20566 -0.0886657 -0.0289132 0.321482 0 
362 2 0 1 1.31748 18.5478 7.32058 11.3473 -1.29772 0.227913 3.72011 4.80372 
93 1 1 0 0 13.5418 8.6333 7.8764 -0.00837637 -0.204478 -0.130916 0 
854 2 0 1 1.59805 5.74479 3.78635 10.7442 2.66038 -2.73555 1.35424 2.05557 
509 1 1 0 0 14.5361 3.63504 12.8341 -0.061638 -0.155864 0.115547 0 
645 1 1 0 0 13.8343 5.47695 7.71157 -0.174038 0.212951 0.290007 0 
25 1 1 0 0 19.6781 2.42782 9.71574 0.46499 -0.143653 -0.0583165 0 
87 1 1 0 0 3.43521 8.32186 13.2955 -0.205377 -0.122368 -0.073068 0 
806 2 0 1 2.31021 16.1628 0.647302 10.1075 1.73432 0.408428 0.309753 -0.263781 
19 1 1 0 0 17.4 2.68068 12.2567 -0.240635 -0.0896177 0.0396669 0 
691 1 1 0 0 11.9369 2.12973 11.784 0.006486 0.120487 -0.400075 0 
473 1 1 0 0 7.6194 6.10118 9.39788 -0.323263 -0.119165 0.173706 0 
225 1 1 0 0 18.1745 4.84653 7.34378 -0.186981 0.0571771 0.098032 0 
491 1 1 0 0 18.7316 5.03176 11.6573 0.317271 0.126568 -0.0977205 0 
78 2 0 1 2.72011 10.4834 5.39258 12.7573 0.0818483 3.13744 -0.197548 0.154037 
182 2 0 1 2.54699 8.24492 7.91238 11.5711 0.87951 -0.241601 1.93629 -2.5249 
344 2 0 -1 2.09089 4.49344 1.00714 7.78511 -3.42267 1.07026 1.71261 1.75143 
566 2 0 1 1.65528 11.8618 5.77875 7.46162 3.80541 -0.397891 -0.164155 1.4226 
680 2 0 -1 1.85877 18.9893 7.51071 11.4071 -3.82007 0.139118 0.150065 -3.55012 
112 2 0 -1 2.42333 8.0224 5.30073 13.4268 0.381933 -1.70653 1.99754 -4.19065 
368 2 0 -1 1.95472 19.303 5.20936 9.41225 4.57635 2.4264 2.3677 0.663084 
517 1 1 0 0 11.8468 5.5927 8.47393 0.244088 0.121546 0.0847253 0 
844 2 0 -1 2.31267 15.5017 8.13941 9.14546 0.490353 1.44301 3.7117 0.242912 
750 2 0 1 1.98295 12.3323 1.78739 8.70412 -4.93524 3.16647 -4.78888 -0.768082 
80 2 0 -1 1.75748 18.1479 3.93858 12.8083 3.90254 -1.79985 -2.42106 2.48836 
587 1 1 0 0 17.2472 7.7079 7.7925 -0.071496 -0.0688436 -0.119445 0 
428 2 0 -1 2.36826 2.86269 0.5148 12.3598 0.815043 -0.425579 1.27323 1.49429 
450 2 0 1 1.71887 19.6679 0.44283 10.3906 -4.74606 -2.75647 -0.654553 2.36077 
60 2 0 -1 3.84439 13.2458 8.13513 10.7151 -1.94531 -0.875146 -0.0542168 1.37084 
420 2 0 -1 1.95989 16.6555 0.613197 7.16568 -4.09184 2.53524 -2.40972 -1.72634 
12 2 0 -1 1.75223 4.97759 9.54584 8.95352 -2.05672 -0.143576 -2.59021 2.95314 
536 2 0 -1 1.47658 8.30865 6.09712 9.09779 -1.27136 1.81828 -2.07031 -0.876943 
445 1 1 0 0 18.0859 7.31817 11.1236 0.301844 0.191248 0.304723 0 
696 2 0 -1 2.61507 13.3304 5.7668 10.6086 3.31364 0.147824 -0.682813 -1.55633 
510 2 0 1 1.5586 10.4611 8.33078 12.3574 -0.521808 2.07795 0.0138379 -5.26426 
858 2 0 1 2.51185 3.48885 7.18087 12.451 1.45433 4.85507 -1.62398 1.2824 
529 1 1 0 0 19.9401 3.63072 7.27096 -0.230866 -0.320821 0.0795132 0 
419 1 1 0 0 7.9807 9.14063 10.3703 -0.106976 0.0665803 0.18315 0 
461 1 1 0 0 9.11179 8.28098 10.1097 -0.429836 0.24637 0.10072 0 
301 1 1 0 0 4.75043 0.342033 9.6503 0.147583 -0.0772798 -0.0167553 0 
470 2 0 1 2.38091 12.7161 9.64268 8.28589 -2.70451 4.03192 1.48697 -2.01583 
639 1 1 0 0 13.8259 1.6083 8.59407 -0.372776 -0.198742 -0.173927 0 
761 1 1 0 0 11.085 8.34557 11.8078 -0.174575 0.0357739 -0.181046 0 
436 2 0 -1 2.14998 10.5211 10.012 12.0078 0.559804 0.15561 2.62723 -1.85422 
338 2 0 1 2.39806 13.4559 6.58811 10.5893 1.36277 3.17761 1.5911 -6.0157 
299 1 1 0 0 2.4018 6.52381 9.25401 0.0730662 -0.287705 0.0857875 0 
848 2 0 -1 1.79221 13.513 1.69026 8.31643 0.11996 -1.93279 5.55425 -0.478506 
325 1 1 0 0 6.89742 3.73832 11.6455 -0.201853 -0.0651072 0.157539 0 
684 2 0 -1 2.87068 19.0643 10.0722 12.1436 2.27071 3.44094 0.317179 5.32028 
58 2 0 1 2.26199 17.6064 2.63925 11.9093 3.54097 0.0974695 -1.15901 0.429047 
242 2 0 1 1.66237 4.23719 9.58656 10.3492 -1.14266 4.40461 -3.17117 -3.61575 
36 2 0 -1 1.90078 13.4305 6.15056 6.95118 -3.1453 -0.154034 0.742981 1.31642 
278 2 0 1 2.55967 1.97076 2.55065 9.19871 1.16429 -2.70321 -3.58617 -3.3547 
346 2 0 1 2.41704 1.17431 7.85931 7.4782 -0.739808 -2.92437 3.60911 -1.95371 
758 2 0 1 1.23424 9.05897 1.90927 12.751 -1.13412 0.0581363 0.942815 1.35605 
42 2 0 1 1.66454 5.02622 4.95067 7.52119 -1.27599 -0.255878 -2.84723 -1.85866 
857 1 1 0 0 14.7255 9.89147 9.0848 -0.15058 -0.175726 -0.208477 0 
340 2 0 -1 1.85836 7.3916 0.376594 9.06081 -1.80996 0.80369 0.500309 0.598627 
14 2 0 1 2.11171 13.6799 2.27066 12.7429 -1.45182 2.42304 2.96107 0.408056 
454 2 0 1 2.18043 2.58216 3.43745 12.1688 -5.11915 -0.476223 -3.44843 -6.17674 
524 2 0 -1 2.44011 15.9579 4.50168 7.01137 0.314835 -0.672067 -0.775545 -1.92849 
404 2 0 -1 1.85148 5.36329 7.28893 11.9792 -2.26061 -1.37503 -3.78129 -1.77868 
602 2 0 1 1.41169 8.49657 10.0532 7.37907 -2.76078 2.10096 1.3188 -1.54501 
41 1 1 0 0 15.8732 2.12415 16.908 -0.0257235 0.27662 0.0498259 0 
2 2 0 1 1.9377 20.0759 0.500092 14.0253 0.675422 -0.411924 1.05061 -1.08616 
23 1 1 0 0 2.10698 5.44683 19.5962 0.311048 -0.0118347 0.162352 0 
593 1 1 0 0 14.9927 0.288363 15.6676 0.0795554 0.13827 0.188432 0 
739 1 1 0 0 12.7365 1.48682 16.4692 -0.0763226 -0.0079424 0.217873 0 
795 1 1 0 0 15.6304 3.44268 18.2798 -0.233379 -0.461508 -0.0210153 0 
855 1 1 0 0 15.7065 3.9259 13.5919 -0.0524426 0.263237 -0.0931422 0 
37 1 1 0 0 17.9163 4.11897 13.4164 0.116472 -0.600609 -0.0234009 0 
401 1 1 0 0 3.07895 3.48712 19.1884 0.328889 -0.205441 0.317036 0 
719 1 1 0 0 2.23676 0.358054 18.6268 -0.265375 -0.0619802 0.215894 0 
265 1 1 0 0 2.63714 5.01883 17.2441 0.34589 -0.111944 -0.238269 0 
292 2 0 -1 1.65468 5.99595 4.61254 17.7336 -1.81653 -2.11508 -1.09015 -3.1933 
660 2 0 -1 1.78482 3.38508 8.76149 13.9951 3.15274 -0.523223 0.583974 -3.42074 
164 2 0 -1 1.82509 9.46385 8.64394 13.6309 -1.65237 -4.33262 -0.569213 -3.34724 
172 2 0 -1 1.81831 15.5331 3.05427 17.8901 -2.45252 0.0702353 0.299602 -0.863934 
115 1 1 0 0 1.23697 9.86484 13.6184 -0.0632936 0.150131 0.068262 0 
69 1 1 0 0 3.65838 5.55257 14.8706 -0.192602 -0.030952 -0.138203 0 
685 1 1 0 0 10.5685 6.36263 14.2725 0.115938 0.053338 -0.383502 0 
52 2 0 -1 2.31653 14.0223 3.93256 15.9887 -1.0816 0.445426 3.66064 -1.56208 
700 2 0 -1 2.08869 19.3428 5.63127 17.9582 0.454947 1.01636 1.947 0.638679 
605 1 1 0 0 10.2757 1.6233 19.8565 0.303722 -0.0748989 0.209835 0 
813 1 1 0 0 10.5418 7.21727 17.3834 0.00562096 -0.0363104 -0.103037 0 
596 2 0 -1 2.14647 6.67533 1.02883 19.0337 -0.810912 -3.12232 -1.80682 -0.735997 
837 1 1 0 0 6.39391 6.7049 19.9478 -0.248629 -0.119925 0.353106 0 
690 2 0 1 1.72291 4.95872 1.10361 14.6174 -0.0607802 1.13926 0.997166 1.37689 
648 2 0 -1 1.71883 6.391 2.37217 13.9338 0.277243 4.29491 0.91863 1.74839 
771 1 1 0 0 16.9925 6.46043 17.0426 -0.0704403 -0.00257747 -0.361818 0 
397 1 1 0 0 6.2276 9.4344 15.7756 0.110459 0.190694 0.201237 0 
646 2 0 1 2.22577 12.2988 5.58946 15.3851 1.75657 -1.21175 -3.23504 -1.09154 
427 1 1 0 0 3.13723 1.49609 15.799 -0.386329 0.100187 -0.550419 0 
296 2 0 -1 1.78526 8.47551 6.62649 14.9256 1.47326 -0.432374 -3.96219 -0.758089 
34 2 0 1 1.89761 18.1109 2.50603 15.1296 -0.664325 0.769632 -4.1449 3.46523 
189 1 1 0 0 18.9594 3.53001 15.8118 0.0164049 -0.147916 0.112317 0 
267 1 1 0 0 7.19926 1.38155 17.1958 0.0217389 -0.089035 -0.377212 0 
753 1 1 0 0 10.384 1.63944 17.0818 -0.0234833 -0.250225 -0.225584 0 
446 2 0 1 2.07393 16.8285 5.65562 13.9817 -1.60513 2.24692 0.743711 2.16195 
525 1 1 0 0 10.3038 9.7201 17.5669 0.12961 0.134927 0.160735 0 
506 2 0 1 1.52823 8.94816 7.03919 17.8027 -5.1333 -0.725535 0.827212 1.86983 
693 1 1 0 0 12.7836 2.42894 18.5472 -0.00974212 -0.418102 0.149344 0 
591 1 1 0 0 13.1078 7.41055 16.4538 -0.198091 0.27428 0.320798 0 
551 1 1 0 0 9.64096 9.75245 14.4038 0.154214 -0.0398236 0.148088 0 
735 1 1 0 0 5.24455 1.66682 18.6891 0.364076 0.159396 0.0424735 0 
215 1 1 0 0 4.84651 7.27842 13.9522 0.334661 -0.0229633 0.105236 0 
159 1 1 0 0 2.38113 2.89957 17.3308 -0.185826 0.158656 0.0171878 0 
268 2 0 -1 1.46105 16.9077 8.14382 16.4152 -3.25473 -0.278411 1.24131 -3.15969 
31 1 1 0 0 0.574176 2.08467 18.9949 -0.0642118 -0.209598 -0.126048 0 
582 2 0 1 1.48182 7.58818 0.733732 15.3539 -2.49976 0.0325895 -1.2454 3.56142 
285 1 1 0 0 10.6689 7.13615 18.8617 0.385225 0.0451213 0.180459 0 
676 2 0 -1 1.42047 3.62438 5.57538 14.9925 0.76417 1.281 -1.96118 -2.00567 
431 1 1 0 0 9.04002 6.7646 17.5309 0.0405285 0.520684 0.057048 0 
311 1 1 0 0 13.5911 3.89448 15.0025 0.403683 0.209463 0.00805714 0 
847 1 1 0 0 17.3632 2.01786 14.9486 -0.181648 0.126549 0.181491 0 
613 1 1 0 0 13.3381 5.77526 14.7315 0.0155827 0.300682 -0.164263 0 
598 2 0 1 1.91917 14.356 8.71144 16.332 -2.83644 -0.862537 -2.01757 1.73016 
823 1 1 0 0 6.91786 9.75708 19.1648 -0.11804 -0.0727278 -0.137648 0 
723 1 1 0 0 17.4119 0.106038 17.7061 0.178385 0.173746 0.541034 0 
99 1 1 0 0 7.34761 4.39872 18.3931 0.173931 -0.112648 -0.141451 0 
170 2 0 1 1.6117 0.783053 3.64975 15.5518 -3.37462 -0.606608 2.68797 1.86169 
367 1 1 0 0 12.2689 5.5645 19.8303 -0.235455 -0.0336227 -0.14494 0 
290 2 0 1 1.56071 9.4719 4.86186 13.5594 1.4747 -0.270864 -3.5266 1.98777 
247 1 1 0 0 7.75544 0.228101 18.1556 0.309441 -0.177384 -0.202629 0 
574 2 0 1 1.66442 8.56927 9.11352 15.4146 -1.56273 0.926439 -0.561166 2.10234 
618 2 0 1 4.10591 10.9336 3.28006 18.0433 1.65434 -0.00144713 -4.2993 0.275894 
151 1 1 0 0 17.4227 7.7648 17.9918 0.363074 0.0519175 -0.0285144 0 
732 2 0 -1 1.34243 17.1033 6.20415 14.5464 -0.0587309 0.794776 1.02038 -1.73991 
217 1 1 0 0 1.38793 8.34134 16.2966 0.0765991 0.0421881 -0.350435 0 
76 2 0 -1 1.40401 14.2827 7.93494 18.6251 -1.24672 -2.07 -1.03875 -5.74108 
564 2 0 -1 1.78212 17.0779 1.96595 15.5181 1.99582 -1.41842 -3.65749 -2.75318 
717 1 1 0 0 8.46281 3.33998 18.4761 -0.0190987 0.0830918 0.168625 0 
137 1 1 0 0 14.5751 8.97046 14.5681 -0.013559 -0.395006 -0.0287212 0 
312 2 0 -1 2.65934 12.5211 9.31712 19.8042 0.448391 -0.223049 0.852621 3.37695 
302 2 0 1 1.45279 4.82041 2.54448 18.9029 -2.12963 -0.476358 2.91301 3.42163 
27 1 1 0 0 4.61548 8.24176 19.3941 0.252655 0.474653 -0.152648 0 
779 1 1 0 0 20.0177 7.08086 14.1524 0.47515 -0.0623178 0.299841 0 
455 1 1 0 0 11.9345 5.22824 17.6255 0.14855 -0.152142 0.0875118 0 
571 1 1 0 0 5.25402 2.15633 13.5791 -0.0164928 -0.160677 0.0446722 0 
457 1 1 0 0 15.8095 1.70807 19.6068 -0.178925 -0.155375 0.118974 0 
123 1 1 0 0 8.77676 1.5537 18.6581 0.143607 -0.115877 0.0297151 0 
410 2 0 1 2.61331 0.312234 9.38496 14.367 1.69723 -0.813987 2.48744 -1.09069 
550 2 0 1 2.21531 6.63709 5.80896 20.0548 3.45083 -1.05549 1.75221 0.32055 
516 2 0 -1 2.04853 11.2205 5.75104 20.3482 2.12663 -1.45449 3.20773 -2.335 
374 2 0 1 1.49383 12.0137 10.1717 18.0162 -2.69829 3.39064 3.14133 -7.46432 
314 2 0 1 2.59171 4.1512 8.9296 14.2786 0.318147 -2.64365 3.27173 -4.27659 
214 2 0 1 1.63568 16.5022 7.39201 17.2551 -0.532687 1.12517 -0.959486 0.93758 
791 1 1 0 0 16.917 6.57852 13.864 -0.158243 -0.231685 -0.683212 0 
689 1 1 0 0 0.700622 3.8694 15.733 0.184686 0.213787 -0.0414485 0 
169 1 1 0 0 7.80207 5.50284 18.148 0.529125 0.176292 -0.384428 0 
281 1 1 0 0 0.841738 1.08056 17.4836 0.399102 0.283714 0.0193565 0 
501 1 1 0 0 5.93456 4.65983 17.298 -0.15973 0.12322 0.130437 0 
712 2 0 -1 1.74727 12.5921 4.89832 18.1104 1.29097 3.27559 -0.418445 -0.950053 
143 1 1 0 0 0.654641 1.04692 14.0834 0.080812 0.284535 -0.162906 0 
467 1 1 0 0 8.3356 7.26835 15.155 0.175737 0.0451808 0.178296 0 
73 1 1 0 0 19.8508 6.02277 16.4068 0.121386 -0.600285 0.130184 0 
499 1 1 0 0 19.4497 10.0151 14.5093 0.490303 0.120955 -0.0204476 0 
211 1 1 0 0 9.94326 4.87914 16.1751 -0.0869713 -0.20054 0.339988 0 
21 1 1 0 0 17.826 5.56599 19.3475 -0.174843 0.0249212 0.0620327 0 
286 2 0 1 1.25556 2.1458 1.0713 19.3364 0.818394 1.12772 -4.35539 1.04098 
809 1 1 0 0 15.4036 8.43185 16.1099 0.34351 -0.0881464 0.222923 0 
615 1 1 0 0 11.0049 8.2107 15.8057 -0.23304 0.23119 -0.0157269 0 
742 2 0 1 1.92208 -0.0261612 1.89594 18.5465 -2.46461 -0.97978 2.7883 -4.28515 
588 2 0 -1 1.99114 11.5685 8.71324 16.7517 2.68285 0.406411 -0.15487 -5.60965 
702 2 0 1 2.5815 6.16957 6.75047 15.6655 0.236432 0.826656 -0.788758 -2.39571 
179 1 1 0 0 10.2589 2.24821 15.2445 -0.184223 -0.0675753 0.317852 0 
471 1 1 0 0 14.4056 7.63374 18.0517 0.263474 0.0945391 0.0797581 0 
288 2 0 -1 1.62008 20.0088 3.65618 15.9647 0.401298 -0.444476 -2.14481 0.345347 
63 1 1 0 0 3.93879 8.52475 16.1874 -0.18366 -0.0814203 0.301543 0 
623 1 1 0 0 17.4814 8.06226 16.4323 0.240897 0.0495749 0.0855843 0 
198 2 0 1 2.04304 6.05195 5.63622 14.4306 -2.74342 -0.224179 -0.0315262 2.90801 
342 2 0 1 2.15121 12.3733 2.13094 17.6251 -5.8293 2.11812 -3.07737 3.75108 
291 1 1 0 0 5.68299 7.97416 16.1397 -0.0868773 -0.14659 0.304367 0 
3 1 1 0 0 19.3692 0.705063 17.705 0.135103 0.17683 -0.211274 0 
64 2 0 -1 1.97801 19.3799 6.8019 14.2116 2.10637 -0.197299 -0.457603 0.0200716 
118 2 0 1 1.9082 14.35 7.28832 18.5508 -2.25102 -1.28103 -4.02677 1.92476 
317 1 1 0 0 9.2759 3.96454 13.5799 0.178566 0.198914 -0.175383 0 
647 1 1 0 0 16.3982 6.31746 15.1472 0.346069 0.0817068 -0.111729 0 
707 1 1 0 0 0.32049 6.5885 18.4951 -0.00295755 0.240834 -0.371881 0 
859 1 1 0 0 0.53325 2.69233 15.4824 0.0898883 -0.195107 0.0854105 0 
390 2 0 1 1.70692 1.07725 6.30585 16.4204 -4.64511 1.24236 0.128695 -2.26612 
708 2 0 -1 2.11508 19.5338 0.820513 14.3224 1.49662 1.30771 2.20147 -3.18018 
74 2 0 1 1.87156 2.36345 1.23385 15.93 -0.0759547 1.91748 -0.649512 1.70294 
154 2 0 1 2.08257 8.26746 2.36197 17.9186 0.808258 -3.67845 1.15455 -2.3939 
698 2 0 1 2.20858 3.02696 4.6615 19.5639 -0.975968 3.42859 -0.322137 1.64896 
743 1 1 0 0 5.64417 4.23714 14.2461 0.122401 0.1852 0.164024 0 
194 2 0 1 1.59145 7.56809 4.64841 18.2985 -3.31397 -1.61959 1.5872 0.964474 
434 2 0 1 2.93937 2.05339 7.61465 17.1843 -0.347089 1.42195 -1.69602 0.848711 
746 2 0 1 1.66248 9.83316 0.669992 15.25 -0.956004 0.780469 0.0842508 -2.62137 
412 2 0 -1 1.30425 10.0843 6.69062 16.7917 2.84083 0.417534 1.3163 -0.0377062 
456 2 0 -1 1.85733 2.76783 8.62401 17.5014 -0.465539 3.94261 2.51657 -4.78178 
568 2 0 -1 2.77408 12.4814 3.71947 14.4843 1.28941 3.4658 1.44567 -2.26505 
332 2 0 -1 1.58968 7.54567 1.09515 16.6893 -4.043 -0.289919 -0.214696 0.0536976 
88 2 0 -1 1.93927 9.26999 1.54659 18.653 5.24729 -2.29647 -1.8741 2.86746 
832 2 0 -1 2.16725 8.64352 4.66651 17.3314 -0.770182 -2.00684 1.45033 -2.47917 
625 1 1 0 0 7.4568 1.46977 15.7972 -0.0976353 -0.0796499 0.182088 0 
808 2 0 -1 1.66799 2.38952 5.14609 19.7334 3.37845 -2.83744 -1.50763 -0.840982 
28 2 0 -1 1.85841 5.2844 8.23439 16.0389 -0.5437 -3.11686 -1.50904 -4.13748 
252 2 0 -1 1.7965 10.8277 1.62728 15.2497 1.31986 -0.647269 1.01189 -2.90856 
117 1 1 0 0 15.1467 9.09075 19.3084 -0.0839036 -0.180731 0.183681 0 
223 1 1 0 0 3.98188 5.48177 19.8091 0.133893 -0.195504 -0.231509 0 
348 2 0 -1 1.47303 1.72604 1.14866 18.2162 0.898881 -0.628654 0.0877963 -2.76635 