ITEM: TIMESTEP
2000000
ITEM: NUMBER OF ATOMS
864
ITEM: BOX BOUNDS pp pp pp
0.0000000000000000e+00 2.0107868000000000e+01
0.0000000000000000e+00 2.0107868000000000e+01
0.0000000000000000e+00 2.0107868000000000e+01
ITEM: ATOMS id type q c_1a[1] c_1a[2] x y z vx vy vz c_1a[3] c_peatom c_keatom 
523 1 1 0 0 0.664114 1.80896 1.10628 -0.301104 -0.287493 0.0747091 0 -0.417084 0.0961665 
289 1 1 0 0 4.83375 4.60142 3.36569 -0.118838 -0.139076 0.13583 0 -0.508001 0.0279068 
725 1 1 0 0 2.82375 2.77709 0.470365 0.272831 0.0736132 -0.0745106 0 -0.654141 0.0459111 
180 2 0 -1 1.31422 2.00434 2.68852 0.728125 5.3255 -3.76501 -2.06318 -5.40285 0.491567 0.183147 
752 2 0 -1 2.02594 5.18044 0.297231 2.74342 0.368564 1.95504 -7.43818 7.41143 0.13468 0.267927 
282 2 0 1 2.12201 4.10128 4.03107 2.91303 6.03285 3.66406 -3.40956 4.13533 0.110735 0.19804 
817 1 1 0 0 2.5268 3.75314 2.63457 -0.123132 0.356887 -0.106642 0 -0.398311 0.0827307 
494 2 0 1 1.434 3.419 1.99622 0.806658 -2.48989 0.411972 -2.81509 -7.2527 0.399348 0.143308 
583 1 1 0 0 6.2472 2.56139 1.75689 0.0999907 -0.0259849 -0.0118926 0 -0.428208 0.00581351 
747 1 1 0 0 4.5338 0.846261 3.71378 -0.123729 -0.0566387 -0.027602 0 -0.44014 0.0103633 
864 2 0 -1 2.27728 6.16432 2.64251 1.41563 0.465597 0.672804 0.184492 1.33736 0.067701 0.00545252 
454 2 0 1 1.585 0.529101 2.22731 0.323402 -2.25556 -0.965958 0.619918 3.39551 0.27216 0.0401352 
164 2 0 -1 1.71598 0.983807 4.68216 4.19852 -3.66004 -0.16102 6.66525 5.33651 0.325899 0.211197 
576 2 0 -1 1.74156 4.30744 4.29699 3.5754 -1.56243 -5.46898 0.958615 0.974715 0.120132 0.0906119 
247 1 1 0 0 2.58643 4.32918 8.03584 0.0447686 -0.0759511 -0.0367687 0 -0.381835 0.00490503 
511 1 1 0 0 1.59692 2.38937 7.08449 -0.177508 -0.60837 0.356249 0 -0.318254 0.284116 
218 2 0 1 1.73355 2.96115 3.35135 7.31019 1.21576 -4.55721 -0.30858 -2.37958 0.128807 0.0708957 
386 2 0 1 2.56634 5.61565 1.44699 5.12358 2.41979 -4.53351 0.382932 5.6459 0.199681 0.134553 
325 1 1 0 0 3.20148 3.89485 6.71881 -0.0793238 0.383878 0.199689 0 -0.400048 0.104033 
528 2 0 -1 2.68544 4.06042 2.66904 9.38666 -3.84451 -0.520318 7.62471 -2.78782 0.0794082 0.210691 
322 2 0 1 1.35941 3.52151 1.28383 8.59195 -0.760979 2.84895 -1.408 1.7018 0.133833 0.0342641 
308 2 0 -1 1.35633 2.82009 2.98157 6.21316 -0.582114 -0.205107 5.66814 8.94699 0.144233 0.246766 
519 1 1 0 0 3.19775 1.29059 8.63246 -0.0709915 -0.0524883 0.278833 0 -0.443634 0.0459836 
651 1 1 0 0 6.5652 2.85315 7.57935 -0.0342461 -0.112886 0.126115 0 -0.360695 0.0160304 
691 1 1 0 0 4.68658 1.53447 8.56277 -0.277581 0.345076 0.0934313 0 -0.214334 0.110122 
853 1 1 0 0 2.88857 2.59951 5.89678 0.277245 0.0685031 -0.486836 0 -0.460039 0.171246 
391 1 1 0 0 5.14924 0.0814783 7.9512 -0.600445 -0.0720726 0.137241 0 -0.219135 0.206723 
750 2 0 1 2.30877 0.37822 3.24776 8.23044 -5.26623 0.599415 -2.12985 2.01337 0.108414 0.0951089 
177 1 1 0 0 6.35685 3.13301 5.35456 0.0615109 0.323706 -0.124116 0 -0.361522 0.0666424 
730 2 0 1 2.26568 0.281846 1.03088 5.58266 -0.434238 -0.631345 2.34891 6.05805 0.0207558 0.0896707 
296 2 0 -1 1.56861 0.40564 0.532056 8.09137 -0.324185 -1.36309 1.31562 -2.37888 0.0967742 0.0211669 
332 2 0 -1 1.66815 1.25398 4.66794 9.3559 1.39199 2.65415 -0.890168 -4.59065 0.266404 0.0682076 
838 2 0 1 1.64376 5.37022 4.99782 6.54323 0.229185 1.44203 -2.90493 3.56796 0.228379 0.0536442 
845 1 1 0 0 5.42279 0.0194624 5.50887 -0.0681287 0.319714 0.185808 0 -0.408764 0.0760009 
125 1 1 0 0 6.26801 2.56746 13.6245 0.397256 0.229648 -0.0343451 0 -0.280921 0.113816 
237 1 1 0 0 4.32566 3.95294 12.501 0.0467131 -0.264197 0.437071 0 -0.30457 0.141383 
65 1 1 0 0 1.33843 4.70871 13.609 -0.270714 0.328176 0.153761 0 -0.297338 0.109999 
711 1 1 0 0 2.65962 2.73733 11.7068 0.000830898 0.084014 0.075853 0 -0.31487 0.00688751 
320 2 0 -1 2.04966 5.0511 3.19804 13.1699 -4.98194 3.01414 -3.56873 7.49338 0.102506 0.236655 
428 2 0 -1 3.52678 2.71335 2.61841 11.4118 1.27566 0.480386 -4.6739 -5.49259 0.153394 0.123535 
471 1 1 0 0 1.84677 3.91111 10.7834 -0.143106 -0.308873 -0.294977 0 -0.381901 0.109066 
852 2 0 -1 2.407 6.68628 0.0451342 13.6686 -0.165102 -0.710246 -1.78603 1.94419 -0.0851609 0.0174825 
326 2 0 1 2.33265 0.767427 1.11633 13.3161 -0.311221 -2.74831 -1.85704 -5.66577 0.0111903 0.09379 
561 1 1 0 0 2.54504 3.77215 14.2827 -0.346813 -0.0548699 0.331001 0 -0.20553 0.12517 
741 1 1 0 0 1.74338 1.84853 13.6275 -0.0246126 0.222639 0.350282 0 -0.254375 0.0929273 
206 2 0 1 2.58751 5.89312 0.736273 13.6095 3.92154 3.09916 3.41713 1.21108 -0.026313 0.100685 
658 2 0 1 3.0231 5.16706 3.11732 13.5315 2.02464 -2.89154 2.39586 -8.21259 0.0400563 0.183411 
686 2 0 1 1.65828 2.62962 3.46931 11.2979 2.29453 -5.77072 -2.40141 -1.32398 0.0481287 0.121716 
303 1 1 0 0 6.40177 4.44359 14.7025 -0.151494 -0.183536 0.0453038 0 -0.278572 0.031548 
136 2 0 -1 2.32688 2.57891 3.59619 14.2691 -0.686875 -1.87802 -2.1617 0.814107 -0.0412564 0.0244479 
477 1 1 0 0 0.265743 2.57306 18.1476 -0.176296 0.0840111 -0.173398 0 -0.317108 0.0366637 
302 2 0 1 2.29469 1.3158 2.25415 17.2041 -0.188476 1.11424 -2.06508 -1.08742 0.155413 0.0171411 
801 1 1 0 0 3.83734 1.81612 17.9934 0.249276 -0.432601 -0.0147554 0 -0.403 0.134119 
351 1 1 0 0 6.0801 2.99963 16.5198 -0.183016 -0.0557093 0.079118 0 -0.305896 0.0230384 
745 1 1 0 0 2.72418 1.54407 16.5846 0.492187 -0.304598 -0.0579893 0 -0.336071 0.181903 
860 2 0 -1 1.75506 6.04358 3.42344 16.0426 -0.921182 1.86542 -4.10085 1.08471 0.0241225 0.0587355 
378 2 0 1 1.48401 4.48715 1.71519 18.3061 0.748658 -0.693161 3.10517 -5.85857 0.132824 0.0971252 
533 1 1 0 0 5.17215 4.35251 16.5581 -0.0733296 0.0755002 0.145465 0 -0.344312 0.0173294 
484 2 0 -1 2.30087 4.11636 2.22368 18.0532 -1.02824 -2.42464 4.79137 -2.61941 -0.0260444 0.0934301 
827 1 1 0 0 4.93346 2.86201 19.3806 0.203166 0.582772 0.345678 0 -0.258248 0.268987 
760 2 0 -1 2.25982 0.975049 1.2615 17.3897 3.17678 -0.202279 -2.0555 0.758092 0.0461624 0.0394336 
611 1 1 0 0 0.82411 4.37953 18.0055 -0.162466 -0.0685954 -0.304435 0 -0.32123 0.066539 
540 2 0 -1 2.35648 0.599807 4.29006 17.4559 -2.40271 -3.3566 -0.380185 1.0974 0.0207472 0.0482291 
779 1 1 0 0 5.00613 0.801991 19.5431 -0.093803 0.216705 0.196188 0 -0.233168 0.0506643 
69 1 1 0 0 1.9243 4.90397 16.3683 0.0972387 0.297565 -0.275754 0 -0.399418 0.093556 
254 2 0 1 2.255 2.62924 0.715209 16.8976 3.07073 -4.86935 -1.88265 -3.48584 0.048721 0.122116 
778 2 0 1 1.66051 5.62868 4.81789 17.3039 -1.52144 -1.18755 -0.257425 -5.66987 0.104233 0.0743986 
403 1 1 0 0 6.62189 9.24185 2.90947 0.098416 -0.284714 0.194026 0 -0.387822 0.0690183 
521 1 1 0 0 4.86837 7.66026 3.71682 0.421901 0.0226888 0.00938005 0 -0.285934 0.0960084 
34 2 0 1 2.01834 0.918804 6.14023 3.03748 -3.05794 -1.52835 4.58003 12.6482 0.093014 0.407023 
225 1 1 0 0 6.14786 8.74258 0.88474 -0.244149 -0.187433 0.368055 0 -0.255754 0.123747 
48 2 0 -1 1.60309 2.29705 9.25312 1.34979 1.39341 -0.0166428 -5.84046 2.56787 0.135454 0.109319 
825 1 1 0 0 2.21128 8.56071 1.99069 -0.281168 -0.0749477 0.0820148 0 -0.400535 0.0491318 
623 1 1 0 0 1.08636 9.04877 4.95304 -0.182427 0.20752 0.0191176 0 -0.305918 0.0412354 
353 1 1 0 0 1.95367 5.56733 0.262508 0.101784 0.183554 -0.0249173 0 -0.408054 0.0240139 
410 2 0 1 1.94157 5.0091 9.00356 4.87502 -3.22795 3.0701 4.50085 5.78915 -0.0845305 0.173954 
534 2 0 1 1.58327 3.70605 8.58611 1.68664 0.991677 1.75246 -1.25781 2.58602 0.205321 0.0284035 
777 1 1 0 0 5.28515 9.79682 4.75288 -0.426783 0.164603 -0.00513902 0 -0.226664 0.11249 
162 2 0 1 1.2925 -0.0527626 5.3523 0.393103 -2.62281 -2.73318 3.32947 -0.0878 0.3003 0.0678355 
235 1 1 0 0 1.03727 5.50697 3.26018 -0.0534337 -0.0621232 -0.133702 0 -0.489666 0.0132188 
77 1 1 0 0 0.655557 9.72527 2.79436 -0.201435 0.411901 0.0725742 0 -0.331879 0.115845 
581 1 1 0 0 2.67789 5.20549 4.81284 0.144323 -0.0312374 -0.118075 0 -0.430174 0.0192156 
96 2 0 -1 2.15825 0.616186 8.64894 4.73327 -1.14183 3.53157 -9.42815 5.74757 0.00279331 0.339815 
764 2 0 -1 1.83879 4.94094 7.44817 4.88341 -0.597481 -0.398696 -4.21672 2.75387 -0.0306413 0.063953 
638 2 0 1 2.19655 2.45799 5.54622 5.92066 -1.44427 1.94163 0.83067 5.5465 0.2283 0.0789759 
543 1 1 0 0 4.483 8.1544 8.49459 -0.188034 -0.106918 0.0426212 0 -0.356991 0.0261276 
138 2 0 1 2.22242 2.91742 7.20485 6.23595 -0.192397 -1.46104 -3.84452 0.0469217 0.137621 0.0452057 
97 1 1 0 0 4.72866 7.96266 5.79459 0.204382 0.182148 -0.0844714 0 -0.268468 0.0441252 
267 1 1 0 0 6.36509 9.10923 7.04158 0.113585 -0.442716 -0.285212 0 -0.165469 0.156022 
751 1 1 0 0 1.6013 6.98031 6.45412 0.465277 0.152684 -0.326332 0 -0.434116 0.186148 
726 2 0 1 1.46247 3.61815 7.951 8.2011 2.5276 0.208342 0.832875 1.4376 0.22483 0.0231336 
568 2 0 -1 1.6067 2.20494 6.46237 6.84412 1.76207 -0.149832 0.501095 1.02967 0.106136 0.0111286 
508 2 0 -1 1.84595 5.69863 6.39216 7.43284 3.22555 3.21203 -3.28107 0.258546 -0.0341142 0.0840909 
307 1 1 0 0 2.69924 9.48414 7.5306 0.0742923 -0.0138423 -0.232131 0 -0.204386 0.0320358 
53 1 1 0 0 6.13797 5.8515 8.66495 -0.0620695 0.0537513 0.334729 0 -0.332107 0.0638533 
127 1 1 0 0 5.43416 5.60456 6.8393 0.00699746 0.212623 -0.103614 0 -0.43349 0.0300994 
67 1 1 0 0 3.06778 6.90089 6.89559 0.139083 -0.207199 0.245233 0 -0.421885 0.0658043 
491 1 1 0 0 0.735055 7.48051 12.2363 0.25826 0.263495 -0.202994 0 -0.528513 0.0953266 
663 1 1 0 0 2.30218 6.22427 12.3169 -0.283961 -0.204509 0.256214 0 -0.472561 0.101116 
41 1 1 0 0 6.67689 8.16894 10.4277 0.05015 0.15154 -0.122607 0 -0.311082 0.0217773 
672 2 0 -1 1.47875 0.67283 8.19934 12.072 -3.0679 -1.85284 1.66822 6.37832 0.310347 0.12303 
160 2 0 -1 1.55879 2.44701 6.06795 11.9402 0.963078 2.08709 -1.66805 0.0238246 0.242134 0.0215082 
863 1 1 0 0 2.98939 9.89762 10.7215 0.043194 0.0663897 0.108526 0 -0.384826 0.00970342 
337 1 1 0 0 3.83621 8.06152 12.2271 -0.394926 0.158448 0.00603351 0 -0.461677 0.0973555 
43 1 1 0 0 3.70012 6.47882 13.4513 -0.392526 0.0260385 0.232731 0 -0.351211 0.112305 
152 2 0 -1 1.80777 6.08562 5.79693 14.8053 -5.6811 -0.967345 -1.93453 -6.36934 0.234281 0.179663 
217 1 1 0 0 4.87288 5.2695 11.8574 -0.215934 -0.0416928 0.0885211 0 -0.362014 0.0302115 
356 2 0 -1 2.51409 4.39404 8.53781 11.0822 2.55169 0.14264 3.66588 -1.94764 0.277544 0.060835 
392 2 0 -1 1.53218 3.92852 7.39214 12.8982 -1.3836 -2.22228 3.82021 4.51736 0.332341 0.0979962 
729 1 1 0 0 3.78081 9.31865 14.0556 0.0299228 -0.162776 0.24834 0 -0.308829 0.0478766 
705 1 1 0 0 1.42339 6.16652 10.2015 0.354547 -0.0965418 0.0365549 0 -0.431165 0.0733007 
85 1 1 0 0 0.432444 7.07478 14.7383 0.140878 0.175487 -0.229192 0 -0.353342 0.0554599 
718 2 0 1 2.14503 1.35727 7.16843 10.844 -7.0095 -1.04221 1.50314 3.19078 0.14831 0.160291 
370 2 0 1 1.85892 1.43134 5.25623 13.7125 1.71524 -3.82805 -1.71876 1.85916 0.0824484 0.0617079 
734 2 0 1 2.32375 1.10338 6.4315 11.3976 1.86922 0.75291 4.87985 6.11691 0.165545 0.14915 
632 2 0 -1 2.06441 5.91831 7.43524 10.7892 -0.504802 -0.413102 -1.22651 1.24685 0.14009 0.00825471 
98 2 0 1 1.76052 6.49094 7.41617 14.1652 2.02134 -3.80659 0.908501 -3.87409 0.198839 0.0817468 
522 2 0 1 2.23804 4.65917 9.28044 14.796 1.3861 -0.272371 0.770602 -1.27678 0.0321452 0.0101642 
493 1 1 0 0 0.332943 8.45866 10.1074 0.0688534 0.217106 0.253861 0 -0.32662 0.0625288 
50 2 0 1 1.83454 5.11192 5.18955 12.0918 -1.8173 2.84633 4.42579 -3.06437 0.0664424 0.101416 
820 2 0 -1 2.09558 0.773165 7.83678 14.8873 -2.4586 0.595232 -1.71692 3.13839 0.052208 0.04462 
327 1 1 0 0 0.984078 9.04992 17.6289 0.307902 0.219647 0.0298469 0 -0.226228 0.077375 
613 1 1 0 0 1.53239 8.58531 15.949 -0.0472262 0.0514401 0.0516431 0 -0.338638 0.00405498 
22 2 0 1 1.63128 2.04474 8.90165 17.1757 0.388332 1.863 0.647568 -3.24956 0.036079 0.0318922 
552 2 0 -1 2.2057 3.96463 9.15991 15.3856 1.02558 5.77178 3.63192 -0.032312 -0.000102899 0.126807 
413 1 1 0 0 4.88297 6.97816 17.7648 0.141738 -0.533354 -0.342657 0 -0.388413 0.226831 
331 1 1 0 0 2.09663 8.95575 17.5928 -0.157613 -0.36567 0.119213 0 -0.28374 0.092872 
271 1 1 0 0 6.26198 9.31321 19.1907 -0.293437 -0.33729 -0.0850811 0 -0.279033 0.111332 
243 1 1 0 0 4.48087 8.54254 15.5406 0.135709 -0.13901 -0.297441 0 -0.305798 0.0678454 
670 2 0 1 1.76093 1.9718 9.95962 15.1614 0.924986 -0.410909 -2.21584 5.60142 0.153498 0.0785699 
539 1 1 0 0 3.9758 5.71416 19.8473 -0.142438 0.335113 -0.595868 0 -0.349727 0.262136 
590 2 0 1 1.72974 2.23817 5.66324 16.1356 0.403561 0.765265 -1.5242 -1.38205 0.177362 0.0120101 
468 2 0 -1 1.86454 1.15742 8.76359 17.5033 4.30318 2.04465 0.0590534 5.47932 -0.0764896 0.120572 
176 2 0 -1 1.73424 4.83352 6.54689 18.1349 0.445347 3.9768 -1.67855 3.28109 0.0458731 0.0717403 
612 2 0 -1 1.71146 2.51844 5.2339 19.912 0.977582 -2.8829 1.71994 1.49602 0.0883502 0.0370727 
758 2 0 1 2.61218 2.96158 5.95282 19.651 -2.87165 1.08778 -1.76154 -1.17351 0.00515994 0.0361715 
132 2 0 -1 2.3421 0.660294 10.8588 0.354201 -4.43942 -1.167 -4.69257 -1.82404 -0.0397714 0.121552 
15 1 1 0 0 4.82157 12.7901 0.668163 -0.165893 -0.0646593 0.119552 0 -0.254528 0.0247242 
35 1 1 0 0 2.28462 14.2505 4.89623 -0.0846902 0.277762 0.0300268 0 -0.156147 0.0458134 
105 1 1 0 0 2.81862 13.7707 2.37905 -0.0915091 0.211779 0.29807 0 -0.306901 0.0763702 
103 1 1 0 0 4.37542 13.8692 2.69129 -0.557083 -0.457814 -0.061998 0 -0.312658 0.281559 
6 2 0 1 2.98483 5.89555 12.2311 2.65807 -2.05207 -3.97219 -2.66759 2.11215 0.0276942 0.0811961 
268 2 0 -1 1.62266 3.4184 13.6123 2.85746 1.41322 -1.67109 -2.80398 -6.90352 -0.0569459 0.129045 
257 1 1 0 0 3.22155 10.2804 1.38823 0.339579 0.00700452 0.366787 0 -0.330846 0.134332 
242 2 0 1 1.72936 3.94715 13.5154 2.29408 0.670694 0.954925 -1.56766 4.73359 -0.0288309 0.0549937 
373 1 1 0 0 5.66426 12.2444 3.98944 0.302267 -0.00498093 0.0999198 0 -0.154288 0.0544939 
94 2 0 1 2.12422 1.73162 13.784 4.84626 1.33423 -5.21138 -1.92045 -2.79332 -0.0255809 0.102601 
786 2 0 1 1.85576 1.06861 10.1577 3.14749 -6.45128 0.262386 -1.97732 0.910987 0.0282547 0.123243 
119 1 1 0 0 0.0557401 11.6412 8.81686 0.235569 0.287021 -0.378809 0 -0.231597 0.151251 
704 2 0 -1 1.74241 1.45183 14.4184 8.57509 -4.67011 -0.865295 2.51489 -4.96036 0.0136454 0.126221 
447 1 1 0 0 4.90507 14.374 8.42288 -0.274231 0.0350066 0.184855 0 -0.241842 0.0594529 
200 2 0 -1 1.70395 2.1367 12.2802 5.15545 1.38459 1.39639 -2.26132 -2.36977 0.117015 0.0351767 
205 1 1 0 0 3.28538 13.7756 6.08775 0.244939 -0.0428951 0.0888683 0 -0.222555 0.0374849 
123 1 1 0 0 1.61698 12.7854 5.92412 -0.0664802 -0.18384 0.160243 0 -0.336005 0.0343466 
436 2 0 -1 2.19421 5.07902 11.3771 5.7448 0.73142 -4.67754 -1.90445 -8.25876 0.0225511 0.205839 
661 1 1 0 0 2.77087 13.9192 8.1409 -0.0330076 0.0164084 -0.105045 0 -0.300029 0.00666198 
336 2 0 -1 2.07899 4.10496 14.7432 7.974 -0.69762 1.88864 2.90845 -0.130432 -0.0767891 0.0333983 
383 1 1 0 0 0.962984 14.3518 9.04712 -0.609708 -0.0448731 -0.185854 0 -0.317382 0.219482 
598 2 0 1 1.68672 3.21632 13.3736 6.82611 1.50129 -2.20031 -5.98019 2.87863 0.0351691 0.130849 
626 2 0 1 1.82803 0.430698 12.0486 7.10012 2.06886 2.13512 -1.79626 -5.0987 0.0131165 0.0841606 
11 1 1 0 0 3.39732 12.1738 11.7801 -0.0590894 -0.420257 0.0546264 0 -0.342435 0.0984215 
859 1 1 0 0 5.67057 12.6767 10.0659 0.000293534 -0.140564 -0.0837681 0 -0.125676 0.0143932 
174 2 0 1 2.48279 3.10424 11.2607 10.1166 4.24057 3.0525 -0.962057 -2.30456 0.0990891 0.085883 
498 2 0 1 1.99401 0.637182 12.8548 14.4815 -3.08276 -4.49329 4.83813 6.12948 0.0142786 0.216723 
357 1 1 0 0 6.35524 12.2937 14.7363 -0.29574 -0.0939063 -0.123739 0 -0.359946 0.0599866 
627 1 1 0 0 5.11303 12.4828 13.7989 -0.187752 0.0733175 -0.393043 0 -0.525685 0.104881 
377 1 1 0 0 4.17566 11.5158 12.9272 0.15379 0.147094 -0.585468 0 -0.422757 0.208603 
264 2 0 -1 2.01079 3.52961 10.3481 13.6059 -3.48061 1.44179 1.1037 -3.81877 0.186753 0.0702572 
843 1 1 0 0 2.88387 12.0777 14.5354 0.155508 -0.349767 0.211501 0 -0.255858 0.102808 
234 2 0 1 1.56471 3.76076 11.3331 12.1774 4.77799 2.88794 -1.59076 4.19926 0.262804 0.125123 
479 1 1 0 0 1.44754 14.5787 13.3583 0.0747119 0.201874 -0.142845 0 -0.217713 0.0358761 
569 1 1 0 0 0.240426 11.3664 10.916 -0.0880462 -0.13914 0.43654 0 -0.277598 0.117014 
796 2 0 -1 1.48925 5.32131 12.3857 13.7768 4.37533 2.81821 -2.95981 0.731916 0.128407 0.096653 
411 1 1 0 0 6.38872 11.1092 10.3568 -0.0727996 -0.0379322 -0.220145 0 -0.151182 0.0296742 
328 2 0 -1 2.08597 1.9372 12.2384 13.6699 -0.585189 -6.35983 0.469376 -6.21246 0.00598649 0.186533 
462 2 0 1 1.49487 5.04308 11.8868 13.8687 -0.80156 -0.685606 -2.93047 -0.697299 0.19054 0.0268372 
318 2 0 1 2.28216 4.3257 13.628 10.5014 3.5627 -4.26599 2.76643 3.69277 0.0699072 0.130047 
695 1 1 0 0 1.26667 10.0822 13.9829 -0.00107572 0.473728 0.190056 0 -0.374543 0.140054 
794 2 0 1 1.88836 0.137338 10.5237 12.844 -4.37092 5.23993 -3.43678 -0.594815 0.103072 0.156356 
12 2 0 -1 2.62461 2.54942 10.6893 10.1852 -2.94725 -3.19256 1.22129 -5.59525 0.0269598 0.116924 
593 1 1 0 0 3.62994 10.227 15.2151 0.178491 0.0768512 -0.0461661 0 -0.24622 0.0214465 
266 2 0 1 1.65863 2.13487 11.6586 18.0973 -1.90388 -0.331772 -1.94485 3.22617 0.0115468 0.0408588 
249 1 1 0 0 1.76823 14.9522 16.8281 0.348124 0.170812 -0.338051 0 -0.366462 0.142261 
833 1 1 0 0 0.364062 13.0683 15.4848 0.100276 0.250362 0.306639 0 -0.208093 0.0896444 
365 1 1 0 0 3.98918 11.8413 19.9218 0.153056 0.219634 0.27991 0 -0.376326 0.0806406 
707 1 1 0 0 1.43971 11.5316 18.1994 0.315871 0.110439 -0.337218 0 -0.319566 0.121319 
439 1 1 0 0 4.92623 12.1679 17.9894 0.0994808 -0.049943 0.098309 0 -0.233155 0.0118559 
485 1 1 0 0 2.62914 12.4262 18.1104 0.126004 -0.136406 -0.0563583 0 -0.365959 0.0202442 
424 2 0 -1 1.60724 2.35146 11.9792 17.6463 3.91037 -2.59231 2.9505 0.68646 0.0157574 0.0828458 
656 2 0 -1 1.80108 0.064312 14.8798 18.6822 -0.504598 0.584824 -1.13033 -1.43216 -0.12601 0.00909947 
631 1 1 0 0 5.11021 15.0233 15.7763 -0.272414 0.227868 -0.280929 0 -0.359097 0.110228 
226 2 0 1 1.49955 5.00005 14.2102 17.7788 -1.79374 0.0337855 -1.55217 -0.866447 0.174336 0.0165077 
733 1 1 0 0 6.4205 10.55 17.7034 -0.448347 -0.0376418 0.151908 0 -0.416482 0.121222 
673 1 1 0 0 4.85282 14.5397 18.0289 0.232831 -0.162567 0.181878 0 -0.4629 0.0611294 
380 2 0 -1 1.64282 5.69348 14.1019 15.7742 1.03399 4.25804 0.216141 -2.84145 0.148223 0.0674665 
684 2 0 -1 1.37435 6.28857 10.3976 18.0221 3.43226 0.534806 0.640433 -1.04811 0.131407 0.0354647 
156 2 0 -1 2.28026 5.43601 14.6285 20.0529 7.28396 1.3665 2.21514 1.08282 0.0199789 0.161878 
54 2 0 1 1.46876 6.63863 13.2337 15.9679 0.354926 0.861082 1.09803 2.85227 0.167399 0.0217972 
826 2 0 1 1.84456 4.45141 11.4883 19.8892 5.35127 10.3971 1.31244 -1.81662 -0.0260615 0.375791 
124 2 0 -1 1.67699 4.10363 11.9597 19.666 -1.62528 0.509577 0.529984 4.51099 -0.0306863 0.0491793 
857 1 1 0 0 2.07479 18.4715 4.81036 0.0885027 -0.230504 0.0227046 0 -0.358845 0.0330489 
300 2 0 -1 2.13996 2.54485 19.5676 4.01648 -7.09948 -0.330349 -2.87035 -5.84377 0.096763 0.224948 
587 1 1 0 0 4.35944 16.7191 3.55423 -0.145245 -0.0290505 0.109232 0 -0.384261 0.0182078 
31 1 1 0 0 6.04251 18.2402 1.03375 0.171104 0.0906462 0.0473729 0 -0.169803 0.0213611 
432 2 0 -1 1.55985 4.34725 16.8993 2.59915 -2.34182 -2.07047 0.128074 1.96205 0.10112 0.0337959 
13 1 1 0 0 3.97027 18.6514 2.36542 -0.195173 -0.0497765 -0.0406028 0 -0.406087 0.0226949 
367 1 1 0 0 1.68465 15.9244 3.46942 -0.0891109 0.0106274 -0.211276 0 -0.284866 0.0283244 
520 2 0 -1 1.8935 1.37046 16.3674 0.497539 -0.596397 -0.816857 1.59844 2.66004 -0.0936331 0.0236907 
209 1 1 0 0 3.44048 15.897 1.27649 0.177289 -0.00644696 0.338703 0 -0.201046 0.0785865 
727 1 1 0 0 1.53464 17.4981 2.09585 0.0657004 0.288166 -0.0111392 0 -0.210875 0.0470254 
414 2 0 1 1.77337 3.73083 17.3025 3.49504 0.898289 0.175748 -3.81771 0.818411 0.0736482 0.0424365 
732 2 0 -1 1.8754 1.53037 16.1017 3.3156 3.45907 -2.69292 2.79753 -2.79484 -0.0296754 0.0877296 
518 2 0 1 1.58735 4.41696 19.1535 1.80221 -2.83337 3.52463 2.74577 -3.85391 0.0522047 0.104337 
677 1 1 0 0 0.942425 15.7327 0.418222 -0.145967 0.20171 0.277041 0 -0.250844 0.0745826 
571 1 1 0 0 4.26676 19.4022 0.850462 -0.045699 0.0439784 0.10129 0 -0.30992 0.00767738 
790 2 0 1 2.35354 1.97617 16.1296 0.439504 1.3256 -2.9879 1.58228 -0.50574 -0.124238 0.0356773 
274 2 0 1 2.4078 0.197522 18.5355 3.93536 -1.9776 1.26873 -1.64124 4.29327 0.0590582 0.0587638 
848 2 0 -1 1.83782 1.06597 17.5908 6.83342 -0.650279 -0.716883 1.45533 -4.35792 0.287421 0.046125 
101 1 1 0 0 0.953152 20.0348 8.38574 -0.0621451 -0.0185633 0.228883 0 -0.48467 0.0304222 
84 2 0 -1 2.28862 0.174617 18.0765 7.805 0.359121 -0.0877095 -1.27395 1.1904 0.284165 0.00752574 
37 1 1 0 0 3.96284 18.9589 8.50587 -0.265793 0.0368072 -0.309933 0 -0.496013 0.0903407 
690 2 0 1 1.79203 0.943876 19.3606 9.09563 2.08901 1.36456 4.44403 2.88721 0.153949 0.0859322 
854 2 0 1 2.30881 4.11922 15.9375 9.11313 -2.88344 1.77501 -0.588724 2.26314 0.0333331 0.0417372 
694 2 0 1 1.59686 4.26647 18.9321 8.16931 -0.696046 1.52862 5.24312 4.40059 0.128649 0.11955 
819 1 1 0 0 4.55969 17.1692 5.31225 -0.127347 0.165431 -0.405115 0 -0.366635 0.111651 
639 1 1 0 0 1.88503 16.5313 6.19312 -0.222151 -0.170759 0.103325 0 -0.279081 0.047942 
637 1 1 0 0 3.2834 17.5859 8.61253 0.0960913 -0.194283 -0.0180759 0 -0.423886 0.0254296 
87 1 1 0 0 0.0158593 18.316 7.75352 -0.125028 -0.205092 -0.187836 0 -0.487161 0.0499798 
678 2 0 1 1.84115 5.47212 16.6422 6.07996 0.984239 -0.32713 -0.456055 0.460548 -0.00571337 0.00384714 
469 1 1 0 0 5.42918 15.8616 6.43333 0.136883 0.203252 -0.101959 0 -0.250646 0.0378673 
244 2 0 -1 1.49344 3.33503 18.5694 8.86963 -2.18555 3.1909 3.21436 -1.91424 0.212134 0.0747635 
240 2 0 -1 1.71574 3.8945 17.0773 5.90089 3.54232 5.16073 2.33191 3.6463 0.0846961 0.145562 
312 2 0 -1 1.95099 5.38679 19.7537 6.6936 3.32985 -2.36872 2.96175 2.61794 0.0313976 0.081622 
558 2 0 1 2.30703 5.01285 19.7271 5.07954 1.065 1.63799 2.09326 -0.587 0.14191 0.022551 
646 2 0 1 1.86437 0.887894 18.3539 12.0805 -2.37442 1.27234 -1.5819 1.9688 0.0618749 0.0337737 
597 1 1 0 0 3.40516 18.4972 11.2388 0.284933 0.127582 -0.0813389 0 -0.310181 0.0559484 
9 1 1 0 0 3.9563 15.9578 10.9056 0.134442 0.0446323 -0.229416 0 -0.223435 0.0390791 
175 1 1 0 0 0.23912 18.3855 14.5485 0.211382 0.234111 0.232703 0 -0.404445 0.0825901 
601 1 1 0 0 3.29951 18.6235 14.95 -0.0447162 -0.304851 -0.0807852 0 -0.320971 0.0545402 
395 1 1 0 0 0.567181 19.1623 12.3032 -0.124349 -0.0404098 -0.0582674 0 -0.417572 0.0110149 
679 1 1 0 0 1.37053 17.6359 11.6499 0.124117 0.0696325 -0.315563 0 -0.340428 0.064417 
163 1 1 0 0 4.54174 19.0475 13.3534 0.00703612 -0.112896 0.0918645 0 -0.127706 0.0114145 
20 2 0 -1 1.33981 3.7235 18.0378 14.7625 -1.86995 2.53758 0.929212 0.499281 0.151479 0.0292945 
117 1 1 0 0 5.56279 18.6762 10.6042 0.175882 0.29393 -0.0818195 0 -0.188067 0.0666692 
847 1 1 0 0 0.278672 16.3461 11.9512 -0.314765 -0.111057 -0.0290024 0 -0.237274 0.0603411 
666 2 0 1 2.12226 1.89198 15.8181 12.6091 0.228822 0.527676 -1.37093 -3.18365 -0.0461005 0.0261629 
102 2 0 1 1.63522 5.71923 15.9311 11.4165 3.11652 6.88818 2.46739 0.294271 0.11292 0.168819 
95 1 1 0 0 5.99811 17.22 14.3608 -0.0594468 0.0933316 -0.0709258 0 -0.429542 0.00928632 
382 2 0 1 1.76433 6.12758 17.5423 14.2499 2.98365 -7.00134 -1.82886 -1.23883 0.0793467 0.16643 
595 1 1 0 0 5.46005 19.4609 12.206 0.0905247 -0.106861 -0.0686659 0 -0.127622 0.0130782 
564 2 0 -1 2.03124 1.7597 18.7703 11.0645 -2.52433 2.28383 0.961259 -2.76327 0.195083 0.0486327 
721 1 1 0 0 5.71135 15.7374 11.3734 -0.0403954 0.410763 0.157225 0 -0.434447 0.104864 
486 2 0 1 1.93055 4.3798 19.3386 11.165 -5.04105 0.670968 -0.786316 -0.978155 -0.0771609 0.0725223 
104 2 0 -1 1.59732 5.04262 18.0323 11.7062 0.326977 -2.5856 3.92579 3.14183 0.0339304 0.078946 
100 2 0 -1 1.76705 6.34762 15.8028 12.2241 1.31682 -0.616688 2.74311 -7.42355 0.0448069 0.13591 
824 2 0 -1 2.38137 0.370202 18.5315 11.5478 2.7675 -2.2532 1.41188 0.566314 0.115186 0.0399162 
592 2 0 -1 1.69512 0.386708 19.4166 14.2851 1.94821 1.2131 1.7117 4.52229 0.102273 0.0627555 
145 1 1 0 0 2.83365 16.4866 15.8901 -0.114581 -0.0302017 0.289996 0 -0.246995 0.0527548 
689 1 1 0 0 1.7254 17.3104 19.0815 -0.131858 0.20397 0.0644106 0 -0.156187 0.0339405 
503 1 1 0 0 3.7526 19.535 18.1543 -0.216385 0.449719 0.0896904 0 -0.275442 0.138212 
231 1 1 0 0 0.263867 19.8077 16.5521 -0.0209464 0.0142166 0.196947 0 -0.226464 0.0211951 
645 1 1 0 0 1.2925 19.6601 19.0902 -0.234331 0.241221 0.0626852 0 -0.136877 0.0629086 
58 2 0 1 1.90399 0.79984 17.7626 19.6434 5.74571 -0.454217 4.01215 2.15834 -0.0793031 0.140816 
737 1 1 0 0 0.152223 15.5493 18.7373 -0.13359 -0.0777671 -0.0333772 0 -0.237571 0.0134432 
556 2 0 -1 1.98664 4.05443 19.1851 19.9853 2.15038 2.83879 6.27777 -2.22526 -0.0397968 0.148806 
57 1 1 0 0 6.09466 19.1862 16.4122 0.0632327 -0.0101663 0.364898 0 -0.238947 0.0737804 
501 1 1 0 0 3.87161 17.5668 17.7633 0.427256 0.239592 -0.22499 0 -0.245868 0.156198 
537 1 1 0 0 1.31241 17.8108 16.8776 -0.0695647 0.0289747 -0.022926 0 -0.119001 0.00333518 
526 2 0 1 2.62249 5.38429 16.8192 16.9078 6.50414 -1.85721 1.4518 -3.28735 0.068221 0.149229 
384 2 0 -1 1.81245 3.88445 19.025 17.7052 -1.62806 1.92306 5.00332 -5.05621 -0.0272043 0.134804 
168 2 0 -1 1.99041 2.72595 15.2046 16.4122 -1.66284 -0.44578 1.05914 -0.598384 -0.0862216 0.0116098 
842 2 0 1 2.32832 4.2131 17.4696 17.4517 -0.151613 -0.137938 4.67402 1.94547 -0.0234778 0.0659332 
550 2 0 1 1.79309 0.2461 18.3101 15.3301 2.76283 -2.25814 -3.02613 1.81567 -0.0127195 0.0649606 
812 2 0 -1 2.18495 0.443534 18.5858 17.4025 0.406285 -5.55867 3.15852 -4.72272 -0.139941 0.154035 
662 2 0 1 1.76166 2.05788 15.4065 16.3033 0.438396 1.83828 2.46801 4.96238 0.0400253 0.0750105 
24 2 0 -1 2.07105 13.1595 4.15557 3.849 4.23422 -4.09671 -1.00014 -2.02511 0.0885119 0.103425 
653 1 1 0 0 13.1767 0.813574 1.97232 -0.00664319 0.212218 -0.0825651 0 -0.338793 0.0278978 
699 1 1 0 0 11.6619 1.46898 4.75695 -0.00719981 0.28574 -0.0415381 0 -0.302135 0.0448452 
81 1 1 0 0 7.93146 2.1769 4.77533 -0.270806 0.335602 -0.109399 0 -0.475422 0.106399 
821 1 1 0 0 11.5145 1.4352 0.362941 0.177714 -0.247647 0.187934 0 -0.312955 0.0689306 
697 1 1 0 0 11.7266 4.6827 1.84309 0.199165 -0.145833 -0.101176 0 -0.160977 0.0382578 
674 2 0 1 1.99608 12.436 1.05069 1.25884 1.8265 0.178857 -3.95829 -2.91184 0.0543821 0.0677148 
385 1 1 0 0 7.38745 3.66242 3.48932 -0.1645 -0.369233 0.362605 0 -0.42653 0.158511 
154 2 0 1 2.02595 12.8649 1.51349 3.88566 4.10249 -5.7399 -2.37582 0.16644 0.130537 0.147833 
642 2 0 1 1.60352 7.12349 2.95697 4.21689 -2.54395 2.44515 -2.45284 -2.0076 0.214923 0.0573007 
60 2 0 -1 2.60433 10.4897 0.9348 0.811997 2.06594 -0.969041 -2.68169 3.75651 0.0611035 0.0612803 
361 1 1 0 0 9.64186 1.49919 1.22484 -0.171612 -0.312197 -0.288577 0 -0.345221 0.11299 
144 2 0 -1 1.7718 7.94245 2.9699 4.43621 1.69888 3.81528 1.3447 2.83348 0.0688485 0.0673867 
374 2 0 1 2.2391 7.28579 3.12901 1.13118 1.18981 2.64361 3.83977 -3.61044 0.0719505 0.0877913 
480 2 0 -1 1.42318 13.0679 2.76099 8.4572 -4.48732 1.72225 1.52212 7.04586 0.176003 0.167058 
421 1 1 0 0 12.6646 4.82665 7.99579 0.0197548 -0.0386883 0.063962 0 -0.350872 0.00321358 
735 1 1 0 0 11.4959 3.84088 9.07577 0.0163295 -0.238519 -0.0932977 0 -0.298147 0.0354046 
527 1 1 0 0 9.24389 2.14327 9.09205 -0.161272 0.272749 -0.363088 0 -0.370399 0.124838 
740 2 0 -1 1.50749 10.7771 2.41887 5.86227 -3.87582 -0.90707 2.93412 2.54686 0.0820364 0.0781763 
207 1 1 0 0 13.026 2.08642 8.4165 0.240814 -0.145029 -0.012427 0 -0.428194 0.0425629 
273 1 1 0 0 7.14232 4.31912 9.63356 0.167572 0.0207973 -0.100481 0 -0.403987 0.0207546 
788 2 0 -1 2.81915 8.37796 2.916 9.191 -1.94934 -3.15105 -0.811402 4.06487 0.153492 0.0714065 
417 1 1 0 0 11.1867 1.87208 7.02543 0.110204 0.153067 0.173533 0 -0.334294 0.0353108 
605 1 1 0 0 10.51 2.7001 5.76847 -0.0357367 0.108667 0.221728 0 -0.479354 0.033462 
286 2 0 1 1.96618 10.0981 2.17772 6.51756 1.86992 0.449676 4.48648 -1.91492 0.0387998 0.0708671 
802 2 0 1 2.2736 12.1284 4.3201 9.22035 -1.59299 4.50582 0.923661 0.0111729 0.0936272 0.0631766 
228 2 0 -1 1.72494 10.5127 0.736935 7.91609 -0.407024 0.866631 -0.497231 7.19376 0.120775 0.106595 
430 2 0 1 1.98835 12.1239 0.617203 8.69505 -5.67165 -0.5025 0.9531 -2.97918 0.0870683 0.106618 
652 2 0 -1 2.94361 7.90934 3.23125 8.05392 1.14282 -1.06861 -4.43042 0.749627 0.155726 0.0599895 
362 2 0 1 2.19857 7.04594 2.30754 7.48036 0.708662 -2.50622 5.33012 3.72235 0.103949 0.12155 
815 1 1 0 0 13.3842 3.34985 9.61505 -0.564848 0.0995667 -0.111718 0 -0.415432 0.183546 
719 1 1 0 0 10.2888 1.62085 14.7139 0.238276 0.0675989 0.484862 0 -0.180692 0.15935 
187 1 1 0 0 11.9171 4.8525 13.7325 0.00932307 0.0239568 0.0523374 0 -0.384898 0.00182771 
856 2 0 -1 2.04578 12.5686 1.85722 11.905 -4.0425 -2.44482 2.87081 -5.3582 -0.0942785 0.138903 
290 2 0 1 2.13928 10.0953 1.33301 15.0574 0.233835 3.40868 2.85853 0.990247 -0.0842538 0.0548762 
615 1 1 0 0 12.6368 1.36161 12.5375 0.274054 0.12348 0.000874524 0 -0.280524 0.0485696 
754 2 0 1 1.84448 12.6832 2.54876 12.6459 0.209404 2.11784 -0.034442 1.01373 -0.103597 0.0141349 
531 1 1 0 0 7.45024 0.594262 14.1703 0.327968 0.0839455 -0.0492765 0 -0.224262 0.062914 
525 1 1 0 0 8.2642 2.48452 10.7305 -0.182692 0.481809 -0.0600924 0 -0.415331 0.14467 
147 1 1 0 0 12.8563 3.25819 12.1006 -0.16379 -0.345643 0.318628 0 -0.261821 0.133216 
759 1 1 0 0 9.23028 2.24948 11.9817 -0.0562702 -0.280707 0.417327 0 -0.217755 0.137681 
620 2 0 -1 1.84973 11.9727 4.5445 13.622 -1.98443 1.75937 -0.12062 -0.451731 0.0173117 0.0192008 
446 2 0 1 1.46532 8.40704 2.31718 10.365 3.78616 4.53302 0.978953 -0.561882 0.0837651 0.0962005 
408 2 0 -1 2.24555 9.25401 1.97341 12.0395 -3.19209 1.17345 1.59996 -3.17663 -0.04849 0.057847 
628 2 0 -1 2.51662 7.49755 4.37474 10.285 7.51363 -1.67893 -2.45996 4.25674 0.167005 0.210421 
781 1 1 0 0 7.25279 0.186997 18.0317 -0.344045 0.0926965 0.207487 0 -0.305733 0.0913896 