ITEM: TIMESTEP
14000
ITEM: NUMBER OF ATOMS
864
ITEM: BOX BOUNDS pp pp pp
0.0000000000000000e+00 2.0107868000000000e+01
0.0000000000000000e+00 2.0107868000000000e+01
0.0000000000000000e+00 2.0107868000000000e+01
ITEM: ATOMS id type q c_1a[1] c_1a[2] x y z vx vy vz c_1a[3] 
600 2 0 -1 1.46582 11.4757 6.34336 2.34512 0.273437 -0.567923 0.992423 -0.964002 
302 2 0 1 2.3733 3.11207 0.979163 1.90052 -0.293316 -1.097 -0.687266 -0.367511 
826 2 0 1 2.00067 4.70147 2.86486 5.80652 1.12448 0.0542431 2.56645 0.805077 
657 1 1 0 0 0.844954 1.13822 3.97004 0.0332316 0.372546 0.258623 0 
371 1 1 0 0 19.1211 8.75256 5.96896 -0.163391 -0.426672 0.239598 0 
174 2 0 1 1.88186 5.61557 4.00217 0.280366 -1.46396 -4.67148 -3.0557 0.459944 
255 1 1 0 0 15.1375 3.0074 3.81239 0.150363 -0.0459466 -0.445786 0 
819 1 1 0 0 0.271852 9.27205 4.06287 0.377743 -0.314368 -0.46367 0 
854 2 0 1 2.45573 15.6359 7.46579 6.21948 1.34739 -0.640171 1.19935 1.27895 
459 1 1 0 0 8.77601 6.2063 3.0503 -0.36521 -0.209561 0.13296 0 
466 2 0 1 2.23168 17.032 5.93667 0.840714 -0.627469 1.16812 -1.39072 -2.72152 
240 2 0 -1 2.0201 11.0442 10.1815 0.172679 5.63395 2.30076 -2.61922 0.139745 
308 2 0 -1 2.25055 19.7295 8.85774 6.15388 4.98207 -3.33103 0.973923 5.61847 
694 2 0 1 1.53001 2.98517 5.23025 4.0239 -4.33204 -3.59284 0.585746 -1.67715 
2 2 0 1 1.57175 11.3115 0.742654 4.50768 -3.89624 1.05198 0.556849 2.88088 
789 1 1 0 0 0.233996 5.71403 2.74544 -0.0921341 -0.451711 -0.415359 0 
837 1 1 0 0 5.45784 4.9751 3.63336 0.167317 -0.30447 -0.0283344 0 
359 1 1 0 0 13.3575 5.64011 0.652385 0.0142117 -0.221072 -0.165325 0 
756 2 0 -1 2.49605 5.31547 2.90579 2.50968 1.64299 -0.829613 1.50452 0.23591 
641 1 1 0 0 5.61448 4.00321 5.0061 -0.0126207 -0.314987 0.0533194 0 
648 2 0 -1 2.152 16.3412 0.32723 4.51544 -1.17597 0.506819 -3.61401 2.11605 
60 2 0 -1 2.04874 13.9601 5.1437 2.50502 4.13999 -0.187948 3.06487 2.62887 
63 1 1 0 0 4.49294 5.57971 0.45383 0.574916 -0.292188 0.323626 0 
430 2 0 1 2.18658 4.91774 5.58387 3.30833 0.329115 -0.136915 -1.23967 4.02124 
456 2 0 -1 1.75672 8.29345 4.2219 2.44068 -3.55299 1.21002 -1.30275 -2.79255 
602 2 0 1 2.15585 0.743736 8.41795 2.60101 1.11947 -0.215241 0.0533865 1.63739 
285 1 1 0 0 8.22679 9.32547 1.21628 -0.370863 0.240719 0.238091 0 
375 1 1 0 0 1.84444 8.51206 5.8052 -0.248833 -0.544866 -0.124441 0 
163 1 1 0 0 7.82143 7.26737 5.88095 -0.112574 0.116046 -0.0939141 0 
86 2 0 1 2.16649 14.92 9.38317 3.53041 1.44732 1.59708 0.908733 4.04425 
45 1 1 0 0 5.47526 6.81011 5.21725 0.0447014 -0.0725978 0.304316 0 
227 1 1 0 0 15.0388 8.02521 6.51417 0.125098 -0.0418801 0.0671721 0 
188 2 0 -1 2.01672 0.471989 2.13639 3.60393 -1.12191 1.61607 2.43517 -0.521763 
421 1 1 0 0 0.876724 9.47476 1.9394 -0.380669 0.0901916 -0.264587 0 
144 2 0 -1 1.75681 0.334248 9.68022 1.73256 -1.95104 -0.046691 -0.419128 0.579998 
530 2 0 1 1.17131 5.81717 -0.122133 3.18861 -2.00809 -3.22528 2.65343 -2.3616 
721 1 1 0 0 3.26062 2.43861 3.56774 -0.08536 0.0204004 -0.00598682 0 
352 2 0 -1 1.74234 3.24399 1.55532 4.70296 -0.777318 0.52859 0.776439 -1.99975 
469 1 1 0 0 5.17857 9.22176 2.21866 -0.564926 -0.056099 0.0141324 0 
749 1 1 0 0 14.0063 6.00057 5.61992 0.0947544 0.0453407 0.23488 0 
805 1 1 0 0 5.16856 0.0909605 4.16455 -0.254006 -0.0116477 -0.180417 0 
206 2 0 1 1.83664 4.62416 7.51989 0.357765 1.60758 -2.43637 -2.43535 -0.558937 
190 2 0 1 1.57911 9.75147 9.00077 4.75512 0.666593 0.33662 -0.533684 5.37364 
626 2 0 1 1.95347 11.006 6.40416 0.949743 0.0179323 -0.0440923 -2.07007 0.691979 
81 1 1 0 0 12.4002 6.28803 5.18113 0.126907 -0.0524497 -0.0953406 0 
747 1 1 0 0 8.29489 4.10133 2.33163 0.191427 0.0612259 -0.4046 0 
490 2 0 1 1.71728 18.7196 3.96015 4.6428 1.97299 1.27512 -0.764445 8.25946 
193 1 1 0 0 2.82733 7.10396 5.29916 0.129901 0.219721 -0.0852216 0 
208 2 0 -1 2.16854 12.7358 3.01315 3.04406 0.906233 1.88453 -2.52717 -0.528955 
540 2 0 -1 2.83545 2.8032 8.27572 1.87357 1.34967 0.765939 -1.55933 -2.58753 
702 2 0 1 1.99712 8.37846 4.35631 2.2151 -2.93537 -3.41981 0.916846 -2.83023 
254 2 0 1 1.85631 17.0767 5.29633 4.94765 5.57424 5.71152 -1.60696 -5.3629 
277 1 1 0 0 8.11428 1.66907 6.48913 -0.29533 0.102625 0.170254 0 
250 2 0 1 2.27342 0.611622 7.19309 4.79415 2.15349 1.91929 -3.6628 4.09434 
675 1 1 0 0 18.6319 3.69482 1.665 0.197482 0.351959 0.236554 0 
131 1 1 0 0 19.5874 7.74754 0.776913 0.111202 -0.0698186 0.192799 0 
117 1 1 0 0 15.511 6.23121 1.02051 0.360435 0.03824 0.188197 0 
710 2 0 1 2.45087 17.2802 8.2298 5.37553 3.30887 1.21233 -2.97248 0.626942 
34 2 0 1 1.72239 11.0339 1.49159 1.13264 1.1814 -0.776036 0.581941 6.06257 
800 2 0 -1 2.07439 18.7631 5.30441 3.77543 -1.05136 -1.12701 0.0598672 -3.50578 
339 1 1 0 0 10.3547 0.826393 5.19823 -0.213395 -0.121866 -0.0576766 0 
603 1 1 0 0 11.4006 6.68964 2.45682 0.0381779 -0.0149299 -0.0909816 0 
718 2 0 1 2.4947 18.8102 1.28612 0.471269 -5.14904 1.38924 -2.4245 -3.04344 
627 1 1 0 0 19.9266 4.22748 0.502478 0.0372733 0.245977 -0.0518673 0 
363 1 1 0 0 0.366971 6.26431 4.31587 0.212379 -0.245779 0.384809 0 
101 1 1 0 0 3.25478 4.65521 3.15877 0.00145937 -0.389285 0.139316 0 
49 1 1 0 0 1.11446 3.55516 3.51759 -0.032082 -0.318742 0.386431 0 
650 2 0 1 2.60515 8.33446 4.51641 6.80527 0.699602 1.47442 2.4133 -1.19883 
46 2 0 1 1.95344 16.3171 3.15231 3.48108 0.0756163 -1.66876 -1.56624 -0.744724 
441 1 1 0 0 18.8063 3.61911 4.21925 -0.206066 0.252418 0.0606748 0 
379 1 1 0 0 7.16668 7.12891 0.672467 -0.136073 -0.181247 -0.22523 0 
129 1 1 0 0 9.82532 9.50002 4.15166 0.132427 -0.253693 0.377033 0 
670 2 0 1 1.83115 11.5013 3.57199 3.63427 0.282992 0.556837 -2.65153 1.03018 
390 2 0 1 1.51268 2.65321 5.92928 6.37543 0.40768 1.53087 4.01629 -3.05705 
355 1 1 0 0 12.1155 5.09269 2.80549 0.199702 0.0920135 0.186739 0 
587 1 1 0 0 16.7714 6.78025 5.40649 -0.0717235 0.146973 -0.364163 0 
153 1 1 0 0 18.4483 5.3038 4.58449 0.327533 0.148384 -0.018134 0 
383 1 1 0 0 7.27083 9.88793 0.560257 -0.217414 -0.251155 0.0498227 0 
848 2 0 -1 2.55551 9.75355 0.730907 6.48622 0.0652416 -2.08747 -0.508757 -2.48436 
463 1 1 0 0 10.8302 5.22605 5.30025 0.00818186 0.116625 -0.00622508 0 
9 1 1 0 0 0.681352 0.0785004 4.9703 -0.0851657 -0.18066 0.307462 0 
633 1 1 0 0 15.9023 3.8191 6.55086 0.126251 0.0567655 0.398189 0 
755 1 1 0 0 15.5689 4.32063 4.58653 -0.207527 -0.180741 -0.0172539 0 
233 1 1 0 0 3.77489 7.20501 1.86111 0.333973 0.052511 0.0186276 0 
483 1 1 0 0 11.3662 2.68638 2.19403 0.27328 0.0908643 0.110205 0 
727 1 1 0 0 18.099 0.343937 3.32179 -0.0726157 -0.317437 0.142135 0 
177 1 1 0 0 4.16875 0.81359 6.34728 0.211262 -0.288339 -0.400628 0 
343 1 1 0 0 9.74099 7.85143 5.45184 -0.338729 0.237485 -0.0118947 0 
845 1 1 0 0 14.2397 5.54752 2.22193 -0.37975 0.062203 0.0116508 0 
261 1 1 0 0 5.86831 9.89834 5.29246 0.121433 0.0188951 0.196547 0 
222 2 0 1 2.20784 12.8876 6.20494 4.04129 1.95804 1.60909 3.69004 2.18179 
401 1 1 0 0 4.94405 1.09553 2.95332 0.233592 -0.241636 0.200483 0 
637 1 1 0 0 1.70501 1.14146 6.38662 0.243793 -0.200806 -0.0532354 0 
23 1 1 0 0 2.0033 4.45312 0.341878 -0.299578 -0.429145 0.0599247 0 
513 1 1 0 0 3.81087 5.26002 4.9039 0.0455025 0.296845 -0.0588459 0 
644 2 0 -1 1.70025 0.566105 6.34776 2.88 -0.860937 -0.184723 1.22428 -2.63978 
123 1 1 0 0 10.3475 0.363404 0.382154 0.126672 0.163071 0.413553 0 
5 1 1 0 0 11.5978 1.18922 4.74235 -0.107882 0.0670196 0.0610612 0 
601 1 1 0 0 8.40458 0.429899 1.71669 -0.0740087 -0.200509 0.0433752 0 
218 2 0 1 1.49808 6.66945 9.93468 0.999817 1.13978 3.52355 0.60895 -3.74648 
358 2 0 1 1.87455 5.12975 6.08023 5.82917 -1.3711 0.833209 -1.48336 -0.719566 
810 2 0 1 2.01969 13.6403 4.66357 1.62469 -0.753717 4.83735 -1.39468 -2.04566 
856 2 0 -1 1.88761 7.77616 7.10631 1.89343 0.751129 -0.607291 -1.05626 2.00726 
476 2 0 -1 2.43027 10.9218 6.2587 5.05033 0.617797 1.34789 -1.08479 1.7948 
607 1 1 0 0 17.0067 3.06455 3.53718 -0.11415 0.0801081 -0.241083 0 
669 1 1 0 0 12.0004 3.84095 4.15466 -0.213213 0.440595 0.440295 0 
310 2 0 1 2.51432 19.7997 3.22538 3.38542 -4.57956 0.985579 0.976356 3.42721 
361 1 1 0 0 14.6221 9.06187 3.91667 0.35144 0.179107 -0.161724 0 
524 2 0 -1 1.88226 6.58084 8.59384 4.94572 4.44068 1.08105 2.60335 1.86301 
412 2 0 -1 1.53378 17.5345 3.20818 0.447224 -2.9439 -2.72567 2.63413 -0.910552 
116 2 0 -1 1.4293 16.3859 3.45344 4.46977 0.997781 -0.698204 -1.47075 -1.95979 
422 2 0 1 2.06026 0.472489 5.39678 2.55014 -1.48977 0.400115 0.811629 -1.85502 
631 1 1 0 0 8.94414 4.24732 6.07413 0.144295 -0.0483608 0.313643 0 
24 2 0 -1 1.72453 4.67704 4.78051 4.79208 -2.77911 0.161407 -2.09566 -1.33699 
617 1 1 0 0 6.46812 7.84082 3.76748 0.167712 -0.096497 -0.350666 0 
194 2 0 1 1.56723 9.09374 8.92738 0.708573 -2.26153 -0.0180092 1.68739 -2.58649 
589 1 1 0 0 9.63999 8.97021 1.13182 -0.366721 -0.169603 -0.185255 0 
55 1 1 0 0 17.0748 7.84274 4.01914 0.0281408 0.0958277 -0.181238 0 
108 2 0 -1 2.50119 10.3255 4.10448 3.84931 -4.36966 2.15763 -0.0194489 3.64127 
100 2 0 -1 1.14616 2.64192 3.85346 2.43165 0.416606 -2.81086 -2.17009 2.67803 
135 1 1 0 0 5.60834 3.77708 2.27562 -0.0358047 0.157057 -0.427141 0 
413 1 1 0 0 5.32688 2.99504 0.366169 -0.404917 0.348207 0.00104351 0 
586 2 0 1 2.31619 8.82958 4.2366 5.74105 0.305466 4.87766 1.55823 -6.03133 
36 2 0 -1 1.56169 12.2525 6.62717 5.42892 -0.075239 -0.46345 -1.76383 2.43915 
742 2 0 1 1.86234 0.830826 1.19279 5.23129 1.80779 1.82404 -0.565111 -0.701877 
508 2 0 -1 2.58692 4.90649 9.02155 0.261482 5.51959 -0.98039 0.582266 3.76234 
127 1 1 0 0 3.4543 9.03867 0.689894 -0.0244279 -0.217547 -0.166631 0 
719 1 1 0 0 2.49594 3.40856 2.34029 0.16978 0.624752 0.274671 0 
128 2 0 -1 2.65774 2.77445 9.00709 5.10359 0.592614 0.217121 -1.43066 4.37517 
570 2 0 1 1.77705 3.49537 2.81721 2.75277 4.36339 -0.731687 -2.78317 -1.19046 
652 2 0 -1 2.47588 16.2101 5.7004 5.06358 -2.06091 -4.6439 4.34168 -1.5885 
191 1 1 0 0 17.525 4.8168 5.75256 0.481471 -0.039659 0.0897432 0 
365 1 1 0 0 6.0977 8.32746 6.19915 -0.00193096 0.175669 0.0518516 0 
760 2 0 -1 2.11587 16.2559 7.36432 5.13442 -2.86348 -1.5034 1.77799 -5.19361 
479 1 1 0 0 13.8713 3.62237 2.90799 0.0401143 0.262022 0.111016 0 
701 1 1 0 0 7.78496 5.97727 0.636512 0.237222 0.1368 0.272481 0 
740 2 0 -1 2.33019 10.9959 -0.0350486 4.23318 1.08845 -1.78304 1.71851 5.72609 
111 1 1 0 0 1.1374 7.54115 3.62031 0.332547 0.337277 0.370618 0 
165 1 1 0 0 16.1252 0.150418 2.73015 -0.117581 0.0439317 -0.0423446 0 
210 2 0 1 2.34306 14.5697 3.92084 4.87293 -0.599626 2.7023 1.71763 0.644252 
640 2 0 -1 1.64215 8.71627 9.37745 6.26628 2.78175 3.036 5.02464 1.94237 
348 2 0 -1 1.36697 6.17186 5.72339 4.28523 1.95965 3.20083 3.75457 -4.82744 
682 2 0 1 1.46591 6.43177 7.85702 3.49366 1.94403 -1.62657 -1.89249 -1.23338 
452 2 0 -1 2.30678 0.513893 4.83401 6.80123 -1.53683 -1.14471 2.38903 -2.58858 
278 2 0 1 2.73461 7.4794 -0.167695 6.21625 -0.709073 -4.68175 -0.426913 -2.17518 
666 2 0 1 1.83839 1.58003 9.7347 5.74122 -2.50619 -1.73127 -2.83174 6.7353 
496 2 0 -1 1.68598 6.98773 6.48408 0.502277 2.75805 -3.19371 0.739119 1.30572 
588 2 0 -1 2.34389 18.1084 6.35684 0.354933 -0.240675 0.67541 3.81168 -2.29077 
347 1 1 0 0 4.13063 4.60577 11.6671 0.0542038 0.0522731 0.123708 0 
303 1 1 0 0 14.589 1.76486 11.6093 0.0926531 -0.18081 0.150842 0 
489 1 1 0 0 9.5706 3.08883 8.83977 0.0489268 0.0693169 0.142569 0 
195 1 1 0 0 11.3762 1.37643 12.6226 0.16431 0.0903186 -0.235914 0 
687 1 1 0 0 16.2614 2.62692 9.5937 0.142378 0.213902 0.233356 0 
566 2 0 1 1.83894 12.7967 3.68109 7.46333 0.0489315 1.25283 -1.64163 -0.286429 
320 2 0 -1 1.40001 3.24639 2.57341 9.41935 0.078195 1.83999 -1.48644 2.00095 
292 2 0 -1 1.45869 10.8453 1.42193 12.5494 -2.38599 1.44912 3.42262 0.113983 
497 1 1 0 0 19.4823 1.50749 8.61158 -0.039509 -0.0345115 -0.3979 0 
335 1 1 0 0 11.5762 4.94119 7.69522 0.134773 0.00277639 -0.544353 0 
733 1 1 0 0 17.5644 1.41347 7.22584 0.186481 0.306734 -0.230354 0 
242 2 0 1 1.4615 2.04286 2.65175 10.5742 1.52756 0.504265 -4.88139 0.188373 
572 2 0 -1 1.60152 18.1927 2.85695 8.43125 -0.14578 1.50084 0.62711 -1.16419 
432 2 0 -1 1.5676 14.8362 8.00088 6.99453 -2.45828 1.42942 -3.00646 -4.35232 
199 1 1 0 0 0.645056 8.85555 12.2838 -0.418868 0.00236378 0.241003 0 
703 1 1 0 0 16.8372 0.538233 9.05837 -0.238979 0.388195 0.0245933 0 
828 2 0 -1 1.89713 3.73008 5.73465 11.9846 2.41039 0.102055 -1.60674 2.0475 
251 1 1 0 0 9.05605 9.63255 11.9249 0.187415 -0.166379 0.374629 0 
65 1 1 0 0 14.3992 3.49266 12.2758 -0.134131 0.0951668 0.223957 0 
454 2 0 1 2.23346 14.7812 8.60326 12.9228 0.732674 -2.70049 -1.44016 0.8566 
297 1 1 0 0 6.1409 0.952282 11.2411 -0.327723 0.163419 0.311696 0 
405 1 1 0 0 7.79864 5.20374 7.28358 0.0789476 -0.124357 0.119346 0 
553 1 1 0 0 8.0359 5.95142 11.0505 -0.24035 0.557349 0.0766499 0 
162 2 0 1 1.481 7.68833 1.87467 10.1777 -1.59485 0.0846259 -0.804584 1.93138 
266 2 0 1 1.63753 2.87231 0.177348 7.49734 1.4915 -4.33988 -0.255851 -0.617145 
655 1 1 0 0 4.75721 9.94927 6.8161 -0.0123103 -0.519167 0.098166 0 
776 2 0 -1 1.24925 0.0701416 2.96158 10.1439 -0.159935 -5.56511 1.18748 -0.830012 
546 2 0 1 1.62375 5.3741 2.38413 8.72411 -0.624033 -0.181107 -1.40339 0.0597842 
495 1 1 0 0 6.1625 6.39012 13.2827 -0.224819 -0.189118 0.0154763 0 
569 1 1 0 0 10.8276 1.85359 7.88368 0.023967 0.258258 0.32989 0 
628 2 0 -1 2.12518 7.77834 6.53934 12.6987 -2.26618 -1.18778 -0.802972 -1.26548 
539 1 1 0 0 3.07138 2.31177 7.14725 0.378664 0.222188 0.0425529 0 
852 2 0 -1 1.61373 4.61685 2.49713 11.3778 -4.21724 1.01255 -1.47758 -3.8031 
729 1 1 0 0 13.0101 3.88095 7.49645 0.258908 0.372931 -0.121059 0 
470 2 0 1 1.49845 0.175506 8.79253 7.83505 1.09555 0.511906 -1.04893 4.57487 
415 1 1 0 0 10.232 6.9261 12.1481 0.0999477 0.205871 0.234395 0 
515 1 1 0 0 6.60427 3.56384 9.02753 -0.309314 -0.0692638 -0.0189737 0 
450 2 0 1 1.78741 18.5108 2.00981 7.0801 0.857129 0.473843 -0.785059 -2.86298 
378 2 0 1 1.59337 2.80869 3.17967 7.48423 -3.8733 0.896076 -2.31941 2.45606 
824 2 0 -1 1.91234 18.9694 9.48727 6.93708 0.879838 -0.252225 -0.613451 0.400018 
468 2 0 -1 1.60218 7.77461 1.98729 10.2766 3.05689 -1.79144 3.25095 2.65913 
213 1 1 0 0 3.74722 3.51047 7.16866 -0.0487791 0.222066 0.113194 0 
157 1 1 0 0 16.016 2.48221 7.57675 -0.0814837 -0.277988 -0.0612341 0 
722 2 0 1 1.77527 15.3872 3.18543 7.11869 0.901162 -0.932763 1.01352 -2.56378 
252 2 0 -1 1.87456 12.6626 3.59965 7.59639 0.0543059 0.978735 1.33545 -0.497293 
293 1 1 0 0 7.65656 3.89864 7.40891 -0.19361 0.193183 0.351405 0 
47 1 1 0 0 2.80239 6.65411 8.18336 0.292791 -0.0635184 -0.374053 0 
424 2 0 -1 1.6938 7.3578 8.15824 7.82068 -0.302334 0.597169 -2.08411 2.0493 
709 1 1 0 0 17.4833 8.41968 7.03728 0.0597779 0.149584 -0.63091 0 
305 1 1 0 0 4.49482 7.37273 9.88361 -0.124453 0.133683 0.10927 0 
475 1 1 0 0 13.8451 8.95096 10.0496 0.240668 -0.0401243 0.0230529 0 
635 1 1 0 0 14.0809 4.29198 10.556 -0.403192 0.209087 0.200257 0 
323 1 1 0 0 7.31268 2.70384 10.3596 0.107113 0.0354533 0.216708 0 
851 1 1 0 0 20.0603 2.8395 10.1535 -0.137126 0.0886871 0.210944 0 
183 1 1 0 0 2.13702 3.15257 10.6529 -0.306575 0.0585849 -0.203078 0 
164 2 0 -1 1.69088 10.8841 8.32651 9.22678 1.01384 1.83107 -0.771258 -2.24928 
327 1 1 0 0 5.05028 2.84616 9.13987 0.0291284 -0.274925 -0.0701436 0 
376 2 0 -1 1.55427 5.74247 1.73165 7.03804 -0.922515 0.748498 0.583626 1.45727 
329 1 1 0 0 3.68591 5.97385 6.86348 -0.173822 0.0106143 0.0317147 0 
149 1 1 0 0 9.66182 9.73774 6.95867 0.116923 -0.168146 0.129592 0 
685 1 1 0 0 12.4547 5.58063 11.266 0.248023 -0.181983 -0.109331 0 
184 2 0 -1 2.9611 15.1758 8.43721 12.4963 -1.31624 -1.35068 -0.465609 1.2936 
170 2 0 1 2.58139 19.6693 3.91456 11.5262 -1.60904 1.33587 -0.868912 -0.0743839 
380 2 0 -1 1.74116 19.2505 0.324466 9.91037 1.42015 -1.49577 1.53626 1.8278 
61 1 1 0 0 18.1446 7.80249 9.40977 0.00780666 0.187566 0.171299 0 
392 2 0 -1 1.77206 3.92209 6.14978 7.21525 2.95895 -4.85148 0.950442 3.5762 
418 2 0 1 1.80081 11.0948 2.12401 12.8139 2.77065 -1.16629 0.520736 0.743197 
850 2 0 1 1.98099 8.57404 8.20663 7.18943 2.28218 -2.60695 1.29048 -3.21412 
697 1 1 0 0 5.49396 1.84495 7.52144 0.150018 -0.174354 0.222583 0 
83 1 1 0 0 19.757 9.14777 8.01263 -0.107016 -0.107418 0.292208 0 
494 2 0 1 3.151 17.3192 9.43552 6.69114 -3.55708 0.175134 -6.1782 4.25195 
478 2 0 1 1.66191 10.4837 1.4962 7.38932 -2.42407 -1.82278 1.67912 -0.5651 
446 2 0 1 1.33131 15.2391 1.1481 12.3688 -2.48783 -0.948406 0.671815 -6.95568 
93 1 1 0 0 12.7115 6.60199 8.0032 -0.19463 -0.295488 0.135948 0 
487 1 1 0 0 14.7301 2.54387 7.58482 -0.0294203 -0.271847 0.118528 0 
420 2 0 -1 1.485 2.74137 2.79797 7.19508 -1.1716 2.5196 -1.97057 3.54548 
645 1 1 0 0 13.9416 6.24461 9.38984 0.0192434 0.124128 0.116947 0 
25 1 1 0 0 3.48603 1.97071 9.58853 0.212482 -0.114481 0.299911 0 
87 1 1 0 0 3.28614 6.39873 11.3802 -0.0751396 -0.141766 -0.197764 0 
33 1 1 0 0 0.199432 6.59158 8.6283 -0.750741 0.310701 0.334138 0 
19 1 1 0 0 15.8588 1.51422 12.677 0.0526703 -0.156424 0.241228 0 
691 1 1 0 0 9.99066 3.96938 10.5063 -0.288494 0.270254 -0.0810999 0 
473 1 1 0 0 7.34333 8.37029 7.81908 0.0374032 0.0161526 -0.414725 0 
225 1 1 0 0 18.5351 5.3195 7.92366 0.434486 -0.126002 0.0971355 0 
491 1 1 0 0 19.2165 4.85247 11.1671 -0.195775 -0.00518521 -0.186119 0 
271 1 1 0 0 11.1398 2.7529 11.4476 -0.0293326 0.228025 0.368402 0 
825 1 1 0 0 2.80023 10.0483 10.5321 0.0245732 0.197321 0.663726 0 
175 1 1 0 0 14.1498 9.72953 12.6625 -0.489937 0.0897921 0.177968 0 
328 2 0 -1 1.97133 5.20755 8.24438 12.7414 -1.74315 -0.202614 -3.57553 3.2 
596 2 0 -1 2.80681 14.4618 2.09102 11.1173 0.208786 1.26938 -0.489691 -1.59107 
51 1 1 0 0 1.23042 3.66641 7.23182 -0.401578 0.186656 0.108401 0 
634 2 0 1 1.92013 15.8189 2.82083 10.2243 -0.837264 1.16431 -4.12566 4.6554 
517 1 1 0 0 12.3019 7.2559 9.6023 -0.0983718 0.159369 0.00734851 0 
74 2 0 1 2.31455 4.51473 9.63458 6.69177 3.01469 1.65134 -1.75993 -4.04597 
198 2 0 1 2.88788 2.28102 7.4223 11.2625 0.68224 0.0742228 4.0605 0.976251 
651 1 1 0 0 11.1366 0.918582 9.52583 -0.0527536 0.156198 0.0157687 0 
629 1 1 0 0 11.9822 8.7015 7.46505 -0.432081 -0.293555 0.160211 0 
400 2 0 -1 1.72501 8.06603 4.5487 6.80209 -0.0398312 -1.06104 -0.769098 -1.20834 
576 2 0 -1 2.04002 13.2419 5.72734 11.9867 -1.52861 0.694574 -0.480583 -2.05679 
516 2 0 -1 1.59393 8.87693 5.05123 9.52776 0.0725158 -0.450679 -3.4003 -0.511832 
510 2 0 1 2.50546 8.74842 6.95356 11.9086 -0.65753 3.11246 -1.85686 1.00052 
139 1 1 0 0 15.3658 0.42375 11.624 -0.0470795 0.0849517 -0.158038 0 
234 2 0 1 1.30224 10.9585 0.664282 9.3154 -1.45115 -2.79698 1.05932 -1.57695 
445 1 1 0 0 17.0115 7.67283 11.12 -0.265709 -0.655898 0.0346221 0 
336 2 0 -1 1.70472 16.3092 1.62828 11.392 2.75598 5.5135 3.65405 3.82007 
732 2 0 -1 1.92726 16.0211 5.24435 8.24567 4.46651 -1.37749 -1.2029 -1.63724 
224 2 0 -1 2.05604 17.5181 8.60679 9.77119 -2.44903 -0.0580623 1.44305 -4.50335 
529 1 1 0 0 18.4545 2.99194 8.18572 -0.363517 0.280201 -0.122356 0 
419 1 1 0 0 3.32163 8.7912 11.8261 -0.390762 -0.219057 0.0703383 0 
461 1 1 0 0 7.07634 9.17283 10.9753 -0.207124 -0.038537 0.144815 0 
672 2 0 -1 1.84956 18.9969 6.89638 9.07575 -1.91944 -1.70508 -2.75396 0.0376042 
396 2 0 -1 1.36326 15.7339 2.45222 7.4639 3.60686 -1.34245 3.92512 -3.90139 
592 2 0 -1 1.65997 10.0756 6.3044 12.5402 -0.2909 0.573042 3.27955 -0.780953 
761 1 1 0 0 10.1513 8.68864 9.10832 -0.187903 0.0428279 -0.272397 0 
427 1 1 0 0 2.3481 1.7652 10.9691 0.036719 -0.216644 -0.466425 0 
338 2 0 1 1.58346 13.4774 5.21917 10.9715 -0.898016 -1.29346 3.14419 -0.873969 
299 1 1 0 0 4.16464 5.33919 8.75907 0.213267 -0.110637 -0.0441446 0 
120 2 0 -1 1.99304 6.32568 1.01018 13.1327 5.73201 0.587386 0.607262 0.279891 
325 1 1 0 0 5.56703 2.58119 12.2086 0.0546312 -0.100741 0.122299 0 
324 2 0 -1 1.79686 10.1191 2.66782 10.1605 0.513775 0.588812 1.19685 -0.892032 
791 1 1 0 0 15.8759 5.30672 7.57791 -0.0792764 0.2203 -0.387259 0 
72 2 0 -1 1.96356 14.0369 9.9773 8.26475 -2.21146 0.795349 1.92168 2.08752 
370 2 0 1 2.1525 15.7512 6.10314 7.66895 0.395397 3.46691 3.29288 2.07415 
143 1 1 0 0 0.0621995 1.8883 13.3323 -0.139269 0.0681481 0.00623401 0 
346 2 0 1 1.91597 17.8027 8.19215 9.92081 3.02099 4.42561 -1.13861 -1.67283 
30 2 0 1 1.98234 12.9974 8.35063 9.62134 2.92446 -5.20162 -3.49536 -1.25795 
91 1 1 0 0 18.868 7.17143 13.1839 -0.0660431 0.141555 -0.0199885 0 
857 1 1 0 0 14.3985 9.06123 7.69965 0.165996 0.063821 -0.0289262 0 
256 2 0 -1 1.99724 12.9548 7.21683 8.91524 0.121488 0.425611 -3.1156 -5.45236 
772 2 0 -1 2.22891 3.60612 9.66191 8.92688 -0.475987 0.396819 -5.37453 -3.13486 
460 2 0 -1 1.99817 5.52859 5.34701 9.89739 1.48022 4.48743 0.577996 -3.79291 
290 2 0 1 1.51394 6.03289 3.54187 9.27564 3.58621 1.7488 3.16176 3.1569 
506 2 0 1 1.41437 9.64541 3.03954 9.11758 0.454734 0.23501 0.268664 5.85499 
82 2 0 1 1.77501 18.4434 5.0317 7.97962 -2.71436 -2.91233 0.0817413 -1.09037 
6 2 0 1 1.75711 15.7501 0.0700575 6.89284 -0.294047 -2.88204 0.505715 -3.69183 
244 2 0 -1 1.75608 1.94461 7.10247 12.6087 -3.45313 0.862912 1.42242 3.09962 
426 2 0 1 2.83677 3.2999 7.52426 12.2778 -5.90693 -4.51953 -3.0149 0.975675 
312 2 0 -1 2.52576 14.4823 3.12048 13.0802 -1.08762 1.70321 0.138944 -0.94561 
136 2 0 -1 1.66961 19.8164 5.75158 12.3897 0.633945 -4.80624 2.57175 -0.901552 
42 2 0 1 1.59205 4.17364 5.85344 8.99497 1.02809 -2.40469 1.00146 0.00147545 
625 1 1 0 0 8.48233 1.47839 10.0895 0.470643 -0.151316 -0.3457 0 
613 1 1 0 0 12.1312 6.82171 13.3327 -0.14178 -0.126052 -0.0468425 0 
750 2 0 1 2.0241 12.3138 6.11223 12.166 -4.86631 -1.04763 0.509928 -0.943754 
22 2 0 1 1.40901 12.3875 6.44678 8.01609 -0.157197 -2.77941 -3.66789 2.53814 
434 2 0 1 2.19327 18.5826 9.6218 12.5976 -1.35453 0.847009 1.87742 -0.145759 
69 1 1 0 0 2.34129 3.53611 12.4526 -0.274232 -0.265536 -0.0311489 0 
200 2 0 -1 1.96753 17.3861 5.4195 12.344 2.45914 1.14867 2.34381 -2.98759 
653 1 1 0 0 5.8092 7.973 13.1281 -0.122932 -0.339225 0.060387 0 
59 1 1 0 0 2.52542 0.021702 8.12155 0.0890732 0.0497406 -0.0492094 0 
846 2 0 1 2.03367 3.81716 3.90805 11.7106 1.09346 1.06208 -1.94958 -2.59641 
647 1 1 0 0 19.4288 5.47648 12.7243 0.269355 -0.0290474 -0.397523 0 
855 1 1 0 0 16.1857 5.60107 12.5418 0.114114 0.164856 -0.316551 0 
730 2 0 1 1.45427 15.9398 5.83855 12.3867 -1.20458 0.28093 0.816258 -2.03812 
382 2 0 1 1.81216 6.17155 9.47441 10.377 5.03643 -3.67297 -2.69024 -3.44979 
354 2 0 1 1.75079 6.4409 1.51215 13.0642 1.44656 -2.02954 -1.30641 -1.95651 
186 2 0 1 3.25606 19.6674 3.51983 12.7345 -0.803785 -3.68589 -4.61998 -0.488357 
41 1 1 0 0 17.1128 5.45002 18.0499 0.213684 0.419316 0.163065 0 
636 2 0 -1 2.0177 17.5821 1.50161 14.8224 -4.45254 1.24393 -2.22908 -1.31174 
704 2 0 -1 1.92601 15.2743 8.72906 15.1448 -2.67908 -0.885192 -0.83039 0.531031 
593 1 1 0 0 15.0692 1.15153 17.7162 0.0165151 0.24223 0.218535 0 
739 1 1 0 0 13.8235 1.53491 14.5162 0.223508 0.137845 -0.204496 0 
795 1 1 0 0 13.7466 1.37401 19.0675 -0.140119 0.0102337 0.143847 0 
541 1 1 0 0 3.08405 0.712175 19.1147 0.309991 0.104031 -0.00218958 0 
154 2 0 1 1.99466 13.7094 3.72887 13.8592 2.90877 1.08294 3.39465 0.538055 
122 2 0 1 2.06405 16.6418 0.0521066 15.347 -2.41461 0.366289 -1.2714 0.774232 
638 2 0 1 2.46005 1.86581 4.80648 19.9459 -0.715118 -1.92062 0.534674 0.711329 
265 1 1 0 0 3.60135 3.06581 13.3924 -0.0283389 -0.270388 -0.388085 0 
558 2 0 1 2.31178 8.78942 8.26031 17.1669 0.376686 -1.32972 -3.05529 -0.581632 
142 2 0 1 2.25004 10.2213 5.35878 14.5305 -3.38821 -2.32612 -0.791149 0.793242 
52 2 0 -1 1.94825 8.03085 7.61866 16.5761 1.9536 -2.01546 1.55603 -1.87547 
89 1 1 0 0 19.3716 3.19855 13.4323 -0.088609 -0.57517 0.123617 0 
264 2 0 -1 2.59481 10.2364 2.95136 17.3333 -1.78325 2.44456 1.75371 -1.93189 
176 2 0 -1 1.66885 10.9013 7.73906 18.607 -2.61068 -0.282303 0.540545 -0.0198131 
322 2 0 1 1.69352 13.377 1.51059 19.7098 -0.747586 -3.00185 0.997211 -1.50063 
512 2 0 -1 1.94594 0.819219 5.11288 19.9817 7.04036 -1.45864 1.23418 0.308746 
500 2 0 -1 1.5661 11.1198 3.8011 18.7634 3.68811 0.25194 0.928296 -2.88544 
708 2 0 -1 2.074 5.62988 1.94394 14.6889 2.22775 -2.61034 2.3553 -0.880489 
813 1 1 0 0 13.528 6.29741 16.1179 0.339914 0.0366732 -0.0185682 0 
720 2 0 -1 1.62075 1.19775 7.7359 14.5239 -0.133231 4.88929 5.28699 3.63066 
298 2 0 1 2.24697 1.56013 2.62636 15.1104 1.34834 0.0162493 0.140832 3.23647 
449 1 1 0 0 8.47815 1.87035 14.4095 0.157948 0.339127 0.0432808 0 
612 2 0 -1 2.03889 1.286 7.99702 18.4695 2.32652 -0.109596 1.19617 1.12331 
771 1 1 0 0 18.791 5.69126 14.2557 0.26308 -0.217282 0.0421818 0 
835 1 1 0 0 16.1379 9.12513 14.2234 -0.00375207 0.076858 0.302984 0 
94 2 0 1 1.81278 16.3258 9.57638 15.4636 2.41002 -0.805414 -0.682501 2.5356 
532 2 0 -1 2.4847 13.8948 3.87458 14.9085 2.45923 0.106674 -1.67246 0.0702853 
296 2 0 -1 2.20339 11.3156 6.6701 15.3336 6.87978 2.42871 0.60854 1.21195 
248 2 0 -1 2.47954 1.96605 2.83438 15.5868 -1.93812 2.84861 -0.989621 0.77065 
189 1 1 0 0 17.8558 3.65846 16.2798 -0.0541857 0.103233 -0.160695 0 
267 1 1 0 0 3.45536 0.462033 17.4917 -0.339434 -0.167667 -0.144669 0 
753 1 1 0 0 11.5058 0.457969 15.4715 -0.029369 0.286462 -0.197307 0 
509 1 1 0 0 11.6403 1.94173 13.6908 -0.290494 0.0761982 0.173537 0 
698 2 0 1 1.5719 11.6524 1.20312 16.3011 1.30976 2.09371 1.15451 2.39867 
535 1 1 0 0 15.1759 7.01921 16.9781 0.015784 0.362014 0.033113 0 
693 1 1 0 0 10.6948 1.62473 17.4456 -0.0417442 -0.0525933 -0.103457 0 
526 2 0 1 2.05933 6.94952 9.60393 15.7401 2.63093 2.88125 -3.46215 1.0585 
118 2 0 1 2.53953 15.0393 3.31285 15.6791 -2.3983 -0.107445 -2.99965 -3.45698 
735 1 1 0 0 6.15593 3.23243 17.6358 0.010203 0.282837 -0.204445 0 
215 1 1 0 0 6.84388 9.31622 15.5171 0.036404 -0.114322 0.216705 0 
159 1 1 0 0 1.88436 4.745 17.6629 -0.0554877 0.0271648 0.198108 0 
498 2 0 1 1.38054 7.03938 6.77413 19.4025 0.0205098 -1.72053 -0.706604 -1.90186 
31 1 1 0 0 0.293441 1.81567 18.6752 0.0889918 -0.218407 -0.186419 0 
692 2 0 -1 2.13943 19.8374 9.38721 18.2991 -0.276745 -4.93936 -0.529469 -0.723144 
207 1 1 0 0 5.61823 5.46181 14.2824 -0.0107738 -0.147592 -0.0396546 0 
317 1 1 0 0 9.61821 5.66318 13.614 -0.0142561 0.0830016 0.124255 0 
832 2 0 -1 1.76916 5.98394 6.10489 13.6184 -2.84495 -4.18853 -3.77801 -0.367823 
311 1 1 0 0 13.9515 4.32194 14.455 -0.292713 -0.259922 -0.176119 0 
847 1 1 0 0 16.2277 2.97948 14.6604 0.0679153 -0.0657235 -0.0921784 0 
715 1 1 0 0 2.75586 1.2409 15.1512 0.306226 0.304231 -0.138687 0 
598 2 0 1 2.2399 14.4462 6.33438 17.4084 -1.87059 -0.496188 -2.83094 2.34774 
823 1 1 0 0 8.06697 7.93217 17.561 0.205544 0.0571706 -0.315323 0 
723 1 1 0 0 17.2984 0.697921 18.6818 -0.118224 -0.201984 -0.139899 0 
99 1 1 0 0 8.30396 3.96387 16.883 0.280773 -0.00668327 -0.137386 0 
664 2 0 -1 2.22241 20.0858 1.93599 18.8331 0.935389 -1.8342 -1.21606 0.666423 
367 1 1 0 0 11.1139 5.21537 19.1612 0.0801488 0.033019 -0.135911 0 
842 2 0 1 2.61967 2.43191 6.70629 17.3877 -0.964538 -1.72907 2.91347 -2.30812 
160 2 0 -1 2.15598 4.63883 7.46778 16.7715 0.640248 -1.52638 -1.69532 -1.28842 
197 1 1 0 0 0.273316 9.24475 18.0993 -0.295882 -0.330464 -0.105927 0 
90 2 0 1 1.81393 5.80248 5.6645 13.8406 1.05523 -1.55892 -0.714249 -2.42913 
151 1 1 0 0 0.398232 6.23865 18.8413 0.211976 -0.182232 0.0275309 0 
114 2 0 1 1.98868 0.122676 8.61548 18.1464 -0.237854 -0.30809 -1.83108 1.42546 
217 1 1 0 0 2.22045 7.79487 13.4744 0.0855886 -0.332255 -0.176449 0 
658 2 0 1 1.72719 7.56615 4.00811 16.9879 -0.356724 -4.80371 0.449879 -2.55618 
438 2 0 1 1.96881 18.7901 3.93825 19.304 -1.39694 1.66333 -2.40737 4.02865 
717 1 1 0 0 10.6456 3.29553 19.1342 0.112316 0.0231034 -0.0375624 0 
137 1 1 0 0 14.7526 7.22722 13.8016 0.00799308 -0.0428876 -0.267252 0 
203 1 1 0 0 14.5034 8.60117 15.5071 -0.220236 -0.336027 0.00943465 0 
492 2 0 -1 1.78067 18.475 3.95885 17.2659 0.194116 -1.02727 2.67228 -1.28294 
342 2 0 1 1.83874 7.28167 0.925738 19.5498 -1.06015 1.12661 0.589413 0.598318 
779 1 1 0 0 4.86098 7.62695 15.4575 0.558753 0.386224 0.00983756 0 
455 1 1 0 0 13.9954 3.8238 16.6766 0.168785 -0.0191189 -0.135067 0 
571 1 1 0 0 5.94804 1.61617 14.2049 -0.0496023 0.204052 0.0257959 0 
384 2 0 -1 1.72194 13.2045 5.96545 19.4551 -2.45985 -0.180154 1.21441 -0.568018 
232 2 0 -1 1.7433 16.8934 0.614237 19.053 1.90989 2.17631 -2.94385 -2.79996 
728 2 0 -1 3.03548 2.21298 2.48472 18.471 0.482188 -1.17395 -2.16682 -1.34775 
780 2 0 -1 1.37868 15.1539 1.4056 18.027 4.62034 -0.406494 0.764779 -5.58285 
386 2 0 1 3.1637 13.0791 8.87696 18.3745 -3.34541 -0.688685 -3.346 -3.02536 
616 2 0 -1 1.23009 8.87519 4.20233 14.0484 0.279765 3.18465 1.61991 0.246377 
457 1 1 0 0 17.0121 2.66601 19.8862 0.319909 0.0606235 -0.176034 0 
246 2 0 1 1.82386 20.1788 5.95321 14.5479 2.68541 0.66942 2.00358 0.842801 
574 2 0 1 2.3938 2.75008 4.58309 19.8309 -1.43347 2.14191 0.564034 -1.13562 
689 1 1 0 0 0.600952 5.35668 14.9339 -0.256989 -0.128099 -0.186366 0 
169 1 1 0 0 10.6584 4.91837 15.7342 0.0972904 -0.14229 -0.167649 0 
281 1 1 0 0 4.74641 3.42828 15.5739 -0.0423783 0.287124 -0.30928 0 
501 1 1 0 0 2.88759 5.54037 17.1677 -0.229509 0.0833704 0.0388895 0 
245 1 1 0 0 1.74505 7.65883 18.5091 0.0953426 -0.227978 0.138284 0 
562 2 0 1 2.23396 4.4867 1.82987 14.5807 1.81127 -0.555566 3.75757 0.849744 
467 1 1 0 0 8.93256 7.43346 16.1245 0.0345203 -0.0339785 -0.00503983 0 
73 1 1 0 0 19.8333 3.66772 19.3118 -0.0799677 0.0662397 0.143607 0 
270 2 0 1 1.68556 10.383 3.10201 18.6867 0.284103 -1.37719 -0.0227824 1.76325 
211 1 1 0 0 9.89731 2.26303 16.4287 -0.138948 -0.113926 -0.324479 0 
21 1 1 0 0 17.8492 4.13472 20.0457 0.322721 -0.159962 0.134203 0 
268 2 0 -1 1.73752 19.6134 9.47843 13.769 0.751952 5.16246 2.07849 -0.669676 
809 1 1 0 0 17.3151 8.9436 15.9522 0.129304 0.099735 0.0532554 0 
615 1 1 0 0 10.9395 9.17132 16.2227 0.0708893 -0.234837 -0.0545047 0 
155 1 1 0 0 6.44998 1.08835 18.7841 0.046224 -0.222076 0.00255963 0 
286 2 0 1 2.02827 17.831 0.175686 17.8626 1.41849 1.32126 3.35651 2.66892 
166 2 0 1 1.92983 12.0913 9.23765 13.9746 0.750579 2.89672 0.804695 2.2909 