ITEM: TIMESTEP
11000
ITEM: NUMBER OF ATOMS
864
ITEM: BOX BOUNDS pp pp pp
0.0000000000000000e+00 2.0107868000000000e+01
0.0000000000000000e+00 2.0107868000000000e+01
0.0000000000000000e+00 2.0107868000000000e+01
ITEM: ATOMS id type q c_1a[1] c_1a[2] x y z vx vy vz c_1a[3] 
88 2 0 -1 2.31467 8.93905 0.608259 1.4623 4.62032 -0.875154 -0.777141 3.60298 
490 2 0 1 1.95745 8.45387 2.77981 2.98627 1.73294 -3.66592 -4.1505 2.9918 
1 1 1 0 0 13.9314 1.55403 1.78671 -0.292297 0.243224 0.15592 0 
369 1 1 0 0 13.0846 0.467276 3.87896 0.157873 -0.378989 0.0903877 0 
52 2 0 -1 1.87611 13.4709 9.35664 1.46878 2.45317 -0.0680738 -0.579668 1.07292 
515 1 1 0 0 10.1442 7.39449 5.82271 0.131064 -0.241642 0.345003 0 
268 2 0 -1 2.50627 0.257083 2.24142 2.43928 -1.45965 -2.20742 0.346456 1.77154 
838 2 0 1 1.70819 17.6775 9.71762 6.56446 1.80932 0.712144 4.20153 0.686818 
313 1 1 0 0 8.50106 2.58347 1.93984 0.32462 -0.125902 0.0178264 0 
459 1 1 0 0 10.7836 7.13101 0.225602 -0.231653 -0.00976825 0.124203 0 
486 2 0 1 1.69647 4.91735 3.96425 0.863171 -1.21055 0.608893 0.0321506 -2.37394 
366 2 0 1 1.52798 19.1955 8.26205 4.80709 -1.69403 -3.22427 0.282715 -4.23777 
51 1 1 0 0 1.6395 5.62538 3.25203 -0.2295 -0.184998 0.124503 0 
212 2 0 -1 2.81126 8.71423 1.46479 2.79024 0.235337 1.60942 -0.168352 2.24771 
178 2 0 1 1.97078 2.60296 5.93263 0.35642 -1.63346 1.84642 -0.527813 2.0108 
789 1 1 0 0 0.475941 4.85625 2.59351 -0.200122 -0.0768287 0.151605 0 
100 2 0 -1 2.46306 19.7432 7.25489 4.9917 -0.362014 -4.31863 2.00216 -0.455208 
359 1 1 0 0 13.1912 5.49312 2.47579 -0.235076 0.0406183 0.140711 0 
825 1 1 0 0 1.53779 8.07922 3.11301 0.153894 0.00345137 0.20473 0 
641 1 1 0 0 7.35891 6.32553 5.00404 -0.198085 0.180354 -0.422863 0 
98 2 0 1 2.07706 0.874196 0.224839 6.95335 -1.81743 0.289784 3.06593 -0.205542 
485 1 1 0 0 15.8395 9.38337 0.900895 0.0476609 0.202162 0.0706502 0 
293 1 1 0 0 10.379 2.74737 4.69204 -0.10842 0.023338 0.0411784 0 
466 2 0 1 2.25918 1.98871 5.00131 4.10631 1.61416 -2.4692 1.78653 2.50066 
30 2 0 1 2.61788 5.09895 9.42828 2.1284 -0.258173 0.827607 3.31228 -2.01122 
367 1 1 0 0 13.5472 6.04627 0.517341 -0.19984 -0.106273 -0.114929 0 
856 2 0 -1 2.21695 10.471 6.83455 4.15631 2.79068 0.630309 0.558788 -1.02705 
748 2 0 -1 1.75871 13.9763 9.2924 4.70011 -4.21099 -2.21588 1.46621 4.94736 
163 1 1 0 0 11.374 5.48801 3.34275 0.0547794 0.223175 0.32642 0 
36 2 0 -1 2.08157 12.5003 4.77607 6.77832 -0.650643 -1.80427 3.20941 -1.63529 
45 1 1 0 0 4.42561 4.2578 3.36469 -0.0520858 0.357235 0.172669 0 
227 1 1 0 0 14.3662 9.1454 4.49173 -0.0149557 -0.0347086 0.124233 0 
596 2 0 -1 2.46722 17.7494 5.43637 2.21833 3.60742 -2.99097 1.83536 2.09214 
328 2 0 -1 1.18859 5.44335 0.100482 2.97081 1.51791 -0.24887 0.0980287 0.861479 
529 1 1 0 0 1.43076 4.91129 6.27304 -0.325197 -0.156531 0.348338 0 
763 1 1 0 0 17.5132 10.0575 5.27204 -0.121685 0.0632651 0.0843441 0 
400 2 0 -1 1.76835 5.8677 7.66661 4.95188 3.37388 -0.552998 -0.0217513 -1.38558 
518 2 0 1 1.69396 10.958 2.39518 2.96941 0.705454 0.334186 -2.9545 -3.98786 
197 1 1 0 0 3.44062 9.36312 2.19212 -0.0397628 -0.0255329 -0.169303 0 
554 2 0 1 2.26331 17.6223 5.65714 3.55049 -1.17412 2.58321 2.98108 -0.198549 
814 2 0 1 2.22763 1.04915 1.80583 3.66194 0.947433 -4.69476 -1.49192 2.79217 
701 1 1 0 0 8.21391 0.1195 1.82493 -0.251777 0.395464 -0.322314 0 
279 1 1 0 0 3.3833 0.428473 2.60193 0.28597 -0.00541266 -0.319357 0 
191 1 1 0 0 16.6109 5.38708 6.68067 -0.408136 -0.145611 0.0158221 0 
81 1 1 0 0 14.8679 6.77914 6.12143 -0.328287 -0.032081 -0.0363649 0 
848 2 0 -1 2.23034 13.3942 6.02962 1.46414 1.9426 -0.800105 3.31656 2.14846 
376 2 0 -1 1.79599 3.96135 3.24632 3.32818 1.44152 -2.3659 -1.84694 2.47915 
193 1 1 0 0 19.0783 6.87497 3.97411 -0.210639 0.0210383 0.0894932 0 
112 2 0 -1 1.97542 4.22441 4.32108 3.23888 5.1678 -2.27555 1.64347 0.55062 
289 1 1 0 0 5.46813 4.0834 1.23529 0.0357489 -0.0246706 -0.140035 0 
706 2 0 1 1.91236 19.3955 3.20868 0.392484 -3.16184 0.408773 -0.0733118 0.395807 
44 2 0 -1 1.61771 15.3359 3.36588 4.0699 0.710027 4.05864 -2.23312 -0.674391 
142 2 0 1 1.89952 14.1226 0.533772 2.14241 1.03691 0.0387889 -1.98104 -2.35263 
97 1 1 0 0 13.4424 9.61067 5.55377 -0.145469 -0.209664 -0.0134429 0 
662 2 0 1 1.85414 13.2966 5.54641 3.51851 -4.92613 -3.67309 5.13854 -2.80211 
131 1 1 0 0 18.2699 5.18165 1.9588 -0.146429 0.285922 -0.526041 0 
498 2 0 1 1.83287 2.60953 8.99603 5.47794 -1.65364 -1.90157 -4.07096 3.91422 
424 2 0 -1 1.90465 6.69368 3.73567 2.08542 0.507066 -1.60612 1.13513 -2.25701 
405 1 1 0 0 6.6481 8.78887 5.82181 0.134794 -0.434752 0.0804703 0 
9 1 1 0 0 1.24656 1.66372 1.22111 0.00146306 -0.132413 0.20466 0 
339 1 1 0 0 12.0162 2.38416 3.33768 -0.0178363 0.0722016 -0.00747205 0 
452 2 0 -1 2.54633 5.70409 7.87341 2.54843 -1.47126 2.23962 0.410089 1.69966 
442 2 0 1 1.5546 9.37075 9.65821 4.74389 -1.37981 0.950179 -1.51164 -1.00665 
192 2 0 -1 1.82231 16.1105 4.53407 5.88584 -3.13674 1.22079 -1.09801 0.951124 
544 2 0 -1 2.30488 16.1538 7.54955 3.78663 -0.110459 5.02355 2.08449 0.977507 
101 1 1 0 0 1.66572 7.91789 0.987236 0.401082 -0.397809 0.0614431 0 
843 1 1 0 0 5.31379 0.173739 2.89329 0.0280464 -0.270934 -0.0714605 0 
766 2 0 1 1.36152 4.26762 2.20723 3.51531 -1.72099 2.52922 1.64147 -0.176267 
234 2 0 1 1.69158 14.3697 0.887967 4.34207 -1.56273 -2.06399 -0.691442 -0.784501 
468 2 0 -1 2.29352 12.3132 3.54965 3.80073 1.48869 -0.403693 -1.73773 -2.92682 
379 1 1 0 0 6.93576 7.18624 2.1812 0.262379 -0.201211 0.527531 0 
438 2 0 1 1.27393 18.0872 2.92697 3.60447 1.0036 -1.12712 6.91031 1.855 
154 2 0 1 1.7478 9.22244 1.74451 0.214348 1.80667 -0.723701 -0.490319 -0.978206 
108 2 0 -1 2.21464 10.3807 6.91506 3.59893 0.863936 2.10137 -1.73849 -0.453424 
718 2 0 1 2.0541 2.836 2.73478 0.218286 -1.17816 1.62644 -0.71535 1.06927 
214 2 0 1 1.83325 13.9523 6.33092 0.468863 -0.519153 -5.26719 -1.52725 0.036663 
290 2 0 1 2.36541 10.5539 6.46938 1.58108 -0.688256 -3.11909 0.206929 1.89394 
773 1 1 0 0 19.1826 1.15329 1.23816 -0.246924 -0.0614696 -0.272956 0 
707 1 1 0 0 19.4681 6.87192 0.172737 0.42381 -0.422738 -0.375973 0 
42 2 0 1 2.21774 6.49755 7.4352 2.75768 -1.03263 -2.00476 0.0383475 -0.383329 
624 2 0 -1 1.817 0.400347 3.53056 0.471788 -1.31004 0.728439 -1.18942 0.908051 
633 1 1 0 0 13.1062 4.62963 4.46516 -0.159174 -0.158694 -0.325109 0 
118 2 0 1 1.86834 13.1745 3.07839 0.89605 1.11513 0.0913519 1.11503 -4.00666 
233 1 1 0 0 17.4313 7.67578 1.88443 0.458699 -0.155908 -0.0767189 0 
483 1 1 0 0 7.66641 5.09575 2.37402 0.223653 0.00976865 -0.0409348 0 
727 1 1 0 0 18.3972 2.99762 2.95501 0.00273866 0.087662 -0.21431 0 
611 1 1 0 0 7.26095 1.12216 5.23265 -0.154075 -0.358277 -0.156919 0 
343 1 1 0 0 8.07146 9.58132 2.86317 0.043351 -0.385906 0.159584 0 
487 1 1 0 0 12.0392 4.71674 6.38775 -0.102462 0.180489 0.102455 0 
781 1 1 0 0 1.16588 1.28116 5.56059 -0.205138 0.0238524 0.0602161 0 
751 1 1 0 0 5.14621 7.2249 4.44935 -0.0244346 0.0464866 -0.395599 0 
62 2 0 1 1.95877 9.0238 1.57418 6.28348 1.56775 0.680825 1.76192 0.895531 
637 1 1 0 0 15.5215 0.426672 5.306 0.226748 -0.0804919 -0.0505136 0 
377 1 1 0 0 19.8778 9.21207 3.94275 0.15303 0.108624 -0.281686 0 
513 1 1 0 0 3.09756 3.16451 2.20089 0.307375 0.140799 -0.132536 0 
818 2 0 1 1.51274 18.1253 0.333896 -0.150439 -2.46674 -4.45603 -3.39392 -2.6144 
579 1 1 0 0 14.8079 0.780691 3.40991 0.157802 -0.0617973 0.0544222 0 
144 2 0 -1 2.03142 19.7267 9.81575 3.35185 0.382993 -2.48682 -0.895125 -0.636242 
601 1 1 0 0 6.45785 3.54096 2.68495 -0.114973 -0.078955 -0.317331 0 
300 2 0 -1 2.15355 19.8001 5.32346 3.07176 0.445498 -0.977835 -2.66466 -1.78401 
524 2 0 -1 1.7484 19.4503 1.46246 5.62845 -2.02898 0.231292 0.646609 0.140221 
261 1 1 0 0 5.96206 9.06026 1.76782 -0.274896 0.174025 0.127762 0 
519 1 1 0 0 0.367041 9.50763 0.670687 -0.495377 -0.101687 0.189417 0 
820 2 0 -1 2.21804 16.4507 -0.0379631 2.76317 -1.16613 -3.47407 -2.25589 -5.78955 
607 1 1 0 0 15.6594 4.2102 4.51258 0.160678 -0.128468 0.115981 0 
669 1 1 0 0 10.8682 1.80605 2.01558 0.464675 -0.39527 0.209955 0 
7 1 1 0 0 19.8254 8.2493 6.06611 0.0531144 0.360273 -0.144135 0 
361 1 1 0 0 11.2233 7.47322 1.73491 0.0553096 -0.244634 0.376033 0 
208 2 0 -1 1.62752 18.6483 9.28688 2.27624 3.4537 1.29269 -0.926999 -4.28755 
531 1 1 0 0 15.8487 4.13947 0.949463 0.12826 -0.411118 0.0937935 0 
560 2 0 -1 2.81243 9.10588 7.3887 -0.156267 -0.876633 1.01156 -2.55564 -1.3422 
223 1 1 0 0 2.81606 5.89373 1.06866 0.212578 0.0823173 -0.331486 0 
631 1 1 0 0 9.64514 7.2507 3.22078 -0.0636559 -0.290961 -0.151314 0 
437 1 1 0 0 13.8964 8.54763 0.67875 -0.0320769 -0.148331 -0.429652 0 
514 2 0 1 4.07391 10.5817 4.55785 2.45633 1.09153 2.10965 -1.66345 -1.38494 
166 2 0 1 1.71353 16.4201 7.64466 1.65655 0.760601 2.6709 -1.69944 0.147649 
850 2 0 1 1.72152 7.29778 5.98538 5.76985 0.459882 0.64351 -4.2196 1.23621 
55 1 1 0 0 18.7525 9.8785 2.85722 -0.55741 -0.0359877 0.108224 0 
710 2 0 1 1.70152 14.5177 9.34573 4.18279 -1.87039 -2.31218 0.671852 1.30484 
788 2 0 -1 1.56708 15.8502 7.67085 6.37512 1.83877 0.257952 3.65361 -3.18739 
90 2 0 1 1.81033 3.37047 2.52215 6.34454 -1.78247 -1.14106 3.65893 -5.05419 
589 1 1 0 0 16.1386 8.05053 3.15089 -0.20406 0.31941 0.0697777 0 
316 2 0 -1 3.66106 3.37861 9.26196 1.97096 1.26718 0.782174 2.75627 1.08255 
83 1 1 0 0 3.26703 8.34152 5.12968 0.0757669 0.288535 0.345975 0 
747 1 1 0 0 5.64674 3.65386 5.10268 0.193906 0.00267474 -0.0358053 0 
540 2 0 -1 2.05246 2.55275 6.25388 0.234601 1.9975 -3.85367 1.2569 -0.282265 
749 1 1 0 0 16.8399 5.12269 2.94731 -0.565448 0.0421329 -0.0278295 0 
535 1 1 0 0 13.4201 3.55265 0.565819 0.0999419 0.242064 -0.422818 0 
439 1 1 0 0 4.47163 2.36469 3.84789 -0.0456888 -0.133847 -0.466739 0 
536 2 0 -1 1.75765 5.24066 4.39702 6.06226 -0.441608 -2.58151 2.51142 -2.54201 
530 2 0 1 1.46337 1.8363 8.72181 1.69874 -0.39497 2.06128 -3.42224 -3.27343 
153 1 1 0 0 18.7605 2.52609 5.16896 -0.0945899 0.156089 -0.270306 0 
441 1 1 0 0 3.07929 1.78878 5.9868 -0.134045 -0.0833123 -0.259665 0 
48 2 0 -1 1.54063 16.5335 3.92709 0.763851 -1.53504 -2.28336 0.668585 -2.52556 
492 2 0 -1 2.18002 15.007 0.864574 4.82981 -1.52068 1.52499 0.309313 -0.664468 
755 1 1 0 0 15.8694 7.81064 6.37277 0.409192 -0.229519 -0.421531 0 
250 2 0 1 1.85015 5.93555 4.52821 3.68058 -0.0232827 2.65648 -3.81718 2.00225 
150 2 0 1 2.00861 15.5697 6.50531 6.57266 2.16425 -2.22944 2.26452 -1.02314 
504 2 0 -1 1.76163 19.4753 3.73322 6.26629 0.558989 4.83287 -0.0398401 -4.09211 
213 1 1 0 0 5.19004 4.0894 6.64924 0.112714 0.0221076 -0.188967 0 
644 2 0 -1 2.93287 6.40723 7.06394 0.595449 -0.310667 -2.72236 2.81823 -0.706973 
242 2 0 1 1.74571 5.35039 8.85364 6.4577 1.34039 -0.406522 -1.78249 0.840381 
568 2 0 -1 2.54835 9.91594 6.29529 0.414408 -2.0799 -0.903917 2.62383 -4.54957 
347 1 1 0 0 3.7595 7.80435 11.582 0.0311863 -0.0472318 0.435889 0 
303 1 1 0 0 12.1391 3.71033 9.84766 -0.0425128 -0.0682081 0.288983 0 
489 1 1 0 0 8.51368 4.17694 7.6727 -0.114594 -0.271822 0.174885 0 
262 2 0 1 1.3992 2.47297 8.56476 11.6266 -1.70405 -2.20747 -1.03225 -3.34197 
141 1 1 0 0 19.1105 8.96514 9.18436 0.270409 0.303709 -0.104997 0 
134 2 0 1 1.97164 19.6462 9.84433 8.38422 -2.28485 -1.17072 -2.07981 -0.949762 
320 2 0 -1 1.52869 0.517564 6.3244 8.14433 -0.131395 -0.495887 -0.726377 -1.8071 
240 2 0 -1 1.66142 17.5887 -0.142729 8.78494 -2.21435 -2.64511 -1.26536 1.19772 
39 1 1 0 0 6.65653 9.79983 12.0823 -0.265964 0.282817 -0.155897 0 
430 2 0 1 1.57238 8.87586 8.07363 8.32706 -3.37622 -3.55824 1.66113 -0.477517 
404 2 0 -1 2.12683 10.46 6.55342 9.83367 3.40242 0.206131 1.97641 -3.27188 
592 2 0 -1 2.00832 3.60275 8.70657 8.69043 -0.245381 3.16789 -0.820477 -0.13635 
694 2 0 1 1.8631 8.59446 10.0733 10.5995 -0.263951 0.905066 -2.05019 -2.35557 
537 1 1 0 0 10.4922 9.71898 7.46932 0.0503952 0.0190176 -0.251399 0 
199 1 1 0 0 4.24938 8.51693 8.58016 -0.174216 0.0901909 0.211413 0 
64 2 0 -1 2.20907 0.587959 7.99013 12.3749 -0.287421 3.49664 -2.18359 3.6507 
382 2 0 1 2.21999 16.645 8.6872 9.18312 0.322764 3.39252 -2.95145 -5.15965 
626 2 0 1 1.57028 2.59192 5.73589 8.33216 0.2209 1.2226 0.769917 -1.47757 
65 1 1 0 0 15.9681 7.97673 10.8143 -0.0767236 0.253305 0.232464 0 
806 2 0 1 1.39614 13.7985 4.03538 6.85883 -0.0759435 -0.998432 -2.35236 -0.287183 
85 1 1 0 0 3.12094 2.61007 10.3462 0.0101525 -0.42949 0.359075 0 
643 1 1 0 0 0.861583 0.923127 10.5438 -0.0881928 -0.194314 -0.0606912 0 
33 1 1 0 0 3.19588 5.4254 6.81182 0.139214 -0.109453 -0.214803 0 
280 2 0 -1 2.77258 2.7178 8.58855 8.91463 -2.01862 0.350082 2.07217 -0.114798 
116 2 0 -1 2.28101 17.3283 9.58134 9.31197 3.63679 -0.512475 0.435028 -2.67375 
89 1 1 0 0 1.89192 4.1228 12.4443 0.0695193 0.0442947 0.0658946 0 
830 2 0 1 1.74586 9.58977 5.40092 11.5362 -1.22075 -3.20238 -0.84518 5.98025 
494 2 0 1 2.19161 7.66527 1.19946 13.563 4.03231 1.70254 5.31401 1.46475 
495 1 1 0 0 10.1563 9.79969 11.9156 -0.00793698 -0.172359 0.248711 0 
828 2 0 -1 2.28622 5.92062 5.4747 12.0474 1.07862 0.433653 0.421554 1.13014 
181 1 1 0 0 0.352476 6.45846 8.0044 0.124416 0.054751 0.0394093 0 
201 1 1 0 0 2.41 1.37891 9.49997 0.159695 -0.267118 0.365527 0 
508 2 0 -1 1.51359 5.71072 9.30749 6.82699 1.38332 2.82978 -4.39383 -5.64787 
729 1 1 0 0 9.01885 2.43407 10.81 -0.0150757 0.40735 -0.28663 0 
357 1 1 0 0 8.15077 0.687947 11.0045 0.0176528 0.107087 -0.274707 0 
415 1 1 0 0 9.34834 4.44019 9.83913 -0.0288378 0.114465 0.0872044 0 
482 2 0 1 2.41063 10.4427 7.22583 8.29471 2.37 3.7025 1.95239 -1.73418 
365 1 1 0 0 5.39096 8.63505 7.11179 -0.0469056 0.148946 0.102931 0 
92 2 0 -1 2.04561 13.4859 0.692387 9.19416 1.92224 1.50871 -0.613931 1.41627 
636 2 0 -1 1.90522 9.18754 0.062627 11.4114 -6.42139 -1.78908 -2.90112 2.32555 
583 1 1 0 0 14.073 2.881 6.78704 0.352085 0.105973 -0.0041974 0 
661 1 1 0 0 12.007 8.84407 10.0165 0.044907 0.195446 0.296898 0 
157 1 1 0 0 19.7989 1.65399 6.78133 -0.206014 0.247609 0.159324 0 
697 1 1 0 0 7.97301 1.45527 7.06987 -0.250677 0.14129 0.133929 0 
616 2 0 -1 1.92986 9.80657 3.60402 11.7743 -4.25217 -5.81176 -0.8386 -4.52536 
570 2 0 1 1.69432 4.53764 6.29604 11.7582 -2.65347 1.86384 1.54944 -0.0529902 
47 1 1 0 0 0.77929 7.32893 12.3033 -0.646905 -0.0599127 0.104338 0 
256 2 0 -1 1.65031 16.8173 6.22449 8.84819 -3.33085 -0.391881 3.25437 2.49357 
709 1 1 0 0 15.4863 3.64123 11.1704 0.151473 0.408083 -0.191911 0 
56 2 0 -1 1.82556 13.9605 9.76929 13.2419 -1.44732 -1.04867 -0.928531 -0.297442 
475 1 1 0 0 11.0879 4.6958 11.7234 0.330072 0.00450908 -0.304377 0 
635 1 1 0 0 18.0334 0.767558 9.52276 0.0748489 0.162098 -0.0830174 0 
323 1 1 0 0 6.45126 2.80721 10.1699 -0.0105372 0.0100583 -0.0243538 0 
851 1 1 0 0 5.09966 6.43335 12.5368 -0.37518 -0.346409 -0.111471 0 
858 2 0 1 1.85037 5.29664 0.275688 11.2632 -1.03671 0.152687 0.21655 5.90139 
779 1 1 0 0 18.2786 6.83044 12.2181 0.42777 0.109619 0.413868 0 
327 1 1 0 0 5.51916 4.79177 11.6937 0.0492712 -0.0548095 -0.0669392 0 
462 2 0 1 1.58077 17.5785 4.26433 10.9396 0.356367 -0.162794 2.84106 -2.32159 
329 1 1 0 0 7.19922 4.73128 7.08912 -0.204625 0.0155033 -0.0130901 0 
282 2 0 1 1.73404 12.362 4.22837 10.1592 -0.202164 1.93177 -6.29134 -1.5912 
678 2 0 1 2.14636 19.0528 1.3409 9.50964 -0.190039 -5.03476 -3.1837 3.29864 
757 1 1 0 0 13.0271 1.45364 11.2929 0.0645235 -0.212326 -0.0236877 0 
460 2 0 -1 1.82519 2.51268 4.44962 12.5497 -0.36392 1.79829 0.887635 1.35904 
175 1 1 0 0 17.5469 8.15564 9.39834 -0.320904 0.255166 0.200727 0 
61 1 1 0 0 0.657445 4.69879 8.41568 0.253238 0.331265 0.0667959 0 
58 2 0 1 1.58393 17.4608 6.75543 12.8473 1.19715 0.961954 -0.663901 -1.08568 
353 1 1 0 0 2.97786 5.93063 8.97476 -0.145278 -0.297971 0.129568 0 
381 1 1 0 0 15.8552 8.40532 12.9562 -0.41505 0.178065 -0.240043 0 
14 2 0 1 3.07289 13.1508 0.261893 9.28619 2.59841 -2.4191 -3.88746 -3.22615 
463 1 1 0 0 12.0189 0.941363 7.85754 -0.156882 0.263311 -0.171603 0 
484 2 0 -1 1.60622 2.23683 4.63092 7.33408 -3.25079 -0.591258 1.28167 0.464835 
563 1 1 0 0 17.6812 9.63799 7.68648 -0.0415613 -0.168422 0.00774658 0 
362 2 0 1 2.3962 0.496217 6.60083 11.0987 -1.64992 0.9915 -2.56825 -1.02901 
93 1 1 0 0 13.636 9.11069 8.57719 0.00168228 0.00376253 -0.152601 0 
854 2 0 1 1.83184 9.46036 4.55285 9.5271 -5.37565 1.60548 -0.127751 3.72383 
509 1 1 0 0 13.5234 4.69023 11.0995 0.218083 -0.26226 0.331816 0 
645 1 1 0 0 13.9569 4.41486 7.18952 0.213874 0.113233 -0.00525431 0 
25 1 1 0 0 18.2787 3.33255 10.4401 0.200722 -0.225438 -0.0793077 0 
87 1 1 0 0 3.1365 9.27018 12.8542 0.0836032 -0.187566 0.095605 0 
472 2 0 -1 2.80016 12.5548 6.96455 10.0051 4.29442 1.85535 1.17767 3.53051 
19 1 1 0 0 18.6452 3.13622 12.5215 -0.35543 0.0411419 -0.195318 0 
691 1 1 0 0 11.8651 1.46299 13.2215 -0.221037 0.254864 0.140728 0 
473 1 1 0 0 8.48655 7.35086 7.96471 0.147966 0.208901 0.298939 0 
225 1 1 0 0 19.179 4.58959 7.13009 -0.152939 0.0195439 -0.000982107 0 
491 1 1 0 0 17.2487 4.65679 11.3747 0.270226 -0.1746 0.150304 0 
205 1 1 0 0 19.688 0.161351 12.5871 0.0105317 0.178668 0.397114 0 
182 2 0 1 2.08146 8.13314 1.99964 8.91641 1.20165 1.21429 -2.92315 0.543741 
428 2 0 -1 1.52205 5.11286 1.26315 9.35962 -1.65555 3.08947 1.01457 -1.94724 
37 1 1 0 0 17.1452 6.17977 13.21 0.220304 -0.306732 0.123369 0 
680 2 0 -1 2.26647 15.7931 9.01953 11.9382 1.38873 -0.239661 3.6163 -4.16839 
470 2 0 1 2.96519 12.3071 6.44555 12.8393 1.36553 2.95877 1.69412 -4.9459 
296 2 0 -1 2.39893 7.80128 5.24123 7.64778 1.64895 2.89062 1.14864 1.59245 
517 1 1 0 0 10.5021 5.34756 9.58131 0.131673 -0.0373509 -0.158654 0 
164 2 0 -1 2.0144 11.5936 4.1826 11.2643 1.2689 3.71703 -1.53229 6.55785 
528 2 0 -1 2.12216 19.6897 9.19495 6.57631 -1.94472 -0.0712216 -2.35764 -0.264352 
833 1 1 0 0 16.5896 9.97075 11.1509 -0.23523 -0.129904 -0.0514532 0 
587 1 1 0 0 17.3157 6.63877 7.98207 0.0161481 0.40579 0.0925393 0 
783 1 1 0 0 14.746 0.663936 9.37885 -0.165431 -0.485734 -0.195829 0 
450 2 0 1 1.46586 2.56943 1.92413 9.77332 -0.505056 -2.77555 2.58989 4.43599 
60 2 0 -1 1.99486 15.701 2.5983 9.71523 -2.79507 -1.45886 2.43253 2.45904 
630 2 0 1 1.63046 11.9962 8.32346 10.02 4.35024 0.887796 1.72686 4.93082 
237 1 1 0 0 13.618 9.88545 12.7533 -0.0298468 0.0433117 0.347971 0 
690 2 0 1 1.68998 4.94701 0.320357 9.29289 -0.185574 0.46205 2.88662 -4.52193 
445 1 1 0 0 16.6429 6.19633 9.37664 0.318065 0.367671 0.220747 0 
776 2 0 -1 2.95498 0.238774 2.84931 13.5304 -0.891905 -2.4986 4.5384 0.938889 
392 2 0 -1 1.69957 6.61955 3.24634 11.1328 -1.19445 1.0411 -0.366004 1.29449 
617 1 1 0 0 9.32532 8.39155 8.16662 -0.501511 -0.0262367 -0.335986 0 
628 2 0 -1 2.50508 17.8938 2.3146 11.111 0.846505 -4.07894 -2.30864 -0.874723 
842 2 0 1 2.27928 6.32462 5.02486 7.6377 -1.71537 -0.3414 -5.86465 3.74108 
461 1 1 0 0 11.6365 7.18653 9.60436 -0.599495 0.121194 0.135504 0 
301 1 1 0 0 5.05204 0.911461 9.42163 -0.170023 -0.228744 0.0434029 0 
260 2 0 -1 1.42469 3.43904 8.12719 12.8294 -2.6061 -0.00201 -2.2398 -2.76953 
639 1 1 0 0 15.6233 2.88805 9.60832 -0.309553 -0.267291 -0.185294 0 
761 1 1 0 0 12.2173 7.5202 11.937 -0.320552 0.300202 -0.0126986 0 
436 2 0 -1 2.16577 12.894 9.11541 9.6866 -2.65438 1.29513 -0.830292 1.62853 
338 2 0 1 1.76641 15.4648 3.55124 10.6806 -0.29563 2.11918 -0.248125 1.5311 
299 1 1 0 0 1.70436 8.33948 8.7706 0.228364 -0.405721 0.0642114 0 
207 1 1 0 0 9.38021 6.19517 11.3716 -0.227667 -0.0917205 0.34472 0 
325 1 1 0 0 8.33957 3.86852 11.5872 -0.0821295 -0.13586 -0.243667 0 
684 2 0 -1 2.19226 17.5748 7.8134 9.3506 -3.78836 1.03075 0.728503 -3.0193 
760 2 0 -1 2.60371 15.9029 6.69298 13.1836 -0.491579 -1.0243 2.1478 -1.07443 
807 1 1 0 0 2.35288 8.73405 11.7369 0.0120805 0.335413 0.0994802 0 
682 2 0 1 1.47893 17.1506 6.65238 9.52484 1.66689 1.83442 3.50428 0.686818 
419 1 1 0 0 7.89806 8.25356 9.9961 0.0865936 0.321809 -0.0697936 0 
728 2 0 -1 3.11874 1.51617 0.761113 12.4089 -1.52385 1.4161 -2.46244 -2.97676 
580 2 0 -1 2.93389 6.41009 8.26898 12.1127 0.616368 4.74363 -0.48361 3.38538 
310 2 0 1 2.54108 11.2492 1.78637 12.4053 1.08318 2.87253 1.50862 1.11051 
862 2 0 1 2.88489 19.2185 3.23272 11.714 1.64091 -1.63048 -3.00281 0.852561 
183 1 1 0 0 4.4637 3.14081 13.3854 0.270684 0.202033 -0.0942811 0 
368 2 0 -1 1.77297 14.1416 2.75547 7.65772 -1.89531 0.266627 0.556334 0.263495 
24 2 0 -1 2.12639 7.47973 1.13657 7.13095 1.7358 -1.67783 -2.18067 3.71768 
378 2 0 1 2.01799 19.3869 4.98749 8.16798 0.531877 1.75019 1.05813 -1.32299 
432 2 0 -1 1.85555 2.32436 0.927742 7.30107 -2.30213 -1.23049 -0.550782 -1.11764 
120 2 0 -1 2.02468 8.15709 8.08899 7.41401 0.274708 4.64937 4.18475 -0.208844 
546 2 0 1 1.7902 8.27208 0.235178 10.3694 1.59496 0.9022 0.57396 2.44346 
278 2 0 1 1.4805 4.50527 3.18965 13.0116 0.489415 1.9126 0.152112 3.265 
322 2 0 1 1.53078 11.8922 5.64811 6.75108 2.32037 -0.444368 -0.524294 -2.09462 
41 1 1 0 0 16.0506 1.60756 16.3361 0.0121284 -0.184537 0.0804994 0 
479 1 1 0 0 12.1475 0.587106 19.9294 0.0599478 0.0664133 0.31359 0 
23 1 1 0 0 1.28186 5.05643 19.5332 -0.0500425 0.239857 -0.0681765 0 
586 2 0 1 1.81696 1.65758 4.85248 16.4083 1.36933 -0.213672 1.356 1.18452 
739 1 1 0 0 12.8406 0.807063 15.5708 -0.228048 0.407268 0.0461784 0 
795 1 1 0 0 16.4959 5.40594 18.4797 0.0706681 -0.0909463 -0.0653503 0 
855 1 1 0 0 16.9788 2.84677 14.6568 -0.232216 0.0782708 -0.247869 0 
654 2 0 1 2.94959 17.7177 3.30073 17.2443 -1.19303 -0.456276 0.0695421 -1.37483 
401 1 1 0 0 1.91879 4.50731 17.7547 0.257343 -0.0586126 0.431522 0 
719 1 1 0 0 2.56814 0.47586 18.4147 0.154027 0.100123 0.0364275 0 
265 1 1 0 0 1.37154 6.44178 17.5174 0.223521 -0.382527 0.0926333 0 
292 2 0 -1 1.35135 9.85756 2.84475 17.1384 1.03164 5.49061 3.7659 0.26336 
49 1 1 0 0 3.79351 3.99279 20.0041 -0.0826546 -0.0699245 0.489963 0 
740 2 0 -1 1.77889 11.5376 1.3265 19.1165 2.34421 0.028833 -4.43836 -0.947945 
172 2 0 -1 2.23401 13.3624 3.97049 16.2384 3.19738 -0.219926 2.38778 1.78896 
115 1 1 0 0 1.83374 9.45377 13.8401 -0.105441 0.0278597 -0.165517 0 
69 1 1 0 0 4.00329 5.42587 16.2794 -0.056357 -0.0391632 -0.356506 0 
685 1 1 0 0 10.3316 7.34847 15.559 0.0218575 -0.431318 -0.0379531 0 
564 2 0 -1 1.8545 13.7895 5.73954 15.1973 3.09258 1.14376 0.593327 -6.36783 
700 2 0 -1 2.12161 0.8992 4.70031 17.1129 -3.00605 0.324625 2.62476 -1.85704 
605 1 1 0 0 9.74489 1.96197 19.6992 -0.143755 -0.00418337 -0.0755269 0 
813 1 1 0 0 10.8704 7.92852 17.3808 -0.111261 -0.121631 -0.0237581 0 
57 1 1 0 0 11.2398 9.50952 19.9239 0.39506 0.266205 -0.21163 0 
837 1 1 0 0 7.45486 8.87541 18.9219 -0.187659 -0.648459 0.149364 0 
386 2 0 1 1.84121 8.37405 2.29349 17.3129 -2.55791 0.657952 -1.90206 3.36948 
198 2 0 1 1.37175 10.1366 4.34979 14.4184 -1.06241 1.1169 3.43049 2.02887 
771 1 1 0 0 17.7281 6.45654 18.2223 -0.49092 -0.221701 -0.112638 0 
218 2 0 1 2.18368 8.01102 8.03795 18.1144 2.39769 -0.964503 2.034 2.52472 
846 2 0 1 1.70569 16.3196 10.1401 16.1062 5.11728 1.17009 0.245128 -2.08119 
427 1 1 0 0 5.08315 1.42606 17.2652 -0.367971 0.00875242 -0.190264 0 
648 2 0 -1 1.62818 4.79331 2.56792 13.4404 -2.10388 1.42214 -2.26208 2.93249 
722 2 0 1 1.59229 1.55839 4.11337 17.722 -0.585426 1.66117 -0.392484 -5.3895 
189 1 1 0 0 18.5847 3.91228 15.5072 0.156081 -0.0480141 0.0109873 0 
267 1 1 0 0 6.31384 2.92082 17.5394 0.255256 -0.38966 0.0182958 0 
753 1 1 0 0 11.5878 2.61602 17.89 -0.315945 -0.0459789 -0.262848 0 
446 2 0 1 2.38021 17.6963 6.75703 16.0749 4.20637 3.56744 3.84049 0.89203 
525 1 1 0 0 8.97497 9.49835 16.4872 0.317663 -0.0941897 0.266778 0 
360 2 0 -1 1.71062 5.64601 3.66151 20.3095 -0.484324 -2.36544 2.33528 3.80851 
693 1 1 0 0 13.0458 3.69372 17.638 -0.169965 -0.194749 0.220298 0 
591 1 1 0 0 13.6219 6.15991 14.5343 -0.254059 0.22919 0.493566 0 
551 1 1 0 0 8.79194 9.92109 14.1138 0.105637 0.0340614 0.0432938 0 
735 1 1 0 0 3.68858 1.90194 19.0296 0.201073 -0.209156 -0.144913 0 
215 1 1 0 0 4.49897 6.92121 14.4156 -0.0327863 0.0624731 -0.245712 0 
159 1 1 0 0 3.12998 2.39361 16.9331 0.0521431 0.0352579 0.107738 0 
383 1 1 0 0 8.87847 9.8865 18.579 -0.0695253 0.23144 0.225188 0 
31 1 1 0 0 19.9852 3.40812 19.8035 0.174184 -0.285207 -0.146206 0 
106 2 0 1 2.4495 12.2793 8.68097 19.4125 1.18923 -0.937699 2.13017 -4.56926 
285 1 1 0 0 8.39086 6.73596 19.4145 0.400871 0.189845 -0.142706 0 
676 2 0 -1 1.60288 10.2312 3.77026 14.1155 -2.31009 -2.62731 4.7583 -1.34931 
431 1 1 0 0 8.11723 4.26758 17.3784 0.301679 0.240267 -0.0508711 0 
311 1 1 0 0 11.9968 2.82354 15.2023 0.0636583 0.0522955 -0.216703 0 
847 1 1 0 0 17.961 1.28306 14.6276 -0.0715205 0.246496 -0.00611373 0 
613 1 1 0 0 13.6085 4.30443 15.0235 -0.197719 0.365808 0.037414 0 
598 2 0 1 1.82054 13.67 5.49438 15.1438 3.95175 -1.12387 -1.8916 1.9774 
823 1 1 0 0 5.58756 9.18114 19.6057 0.453507 0.16617 -0.0544589 0 
13 1 1 0 0 14.8411 2.05807 14.3126 -0.168439 -0.03986 -0.268868 0 
99 1 1 0 0 5.3444 2.83854 19.4808 0.370339 0.507466 -0.272953 0 
170 2 0 1 2.44889 7.68191 7.05616 14.8214 1.4233 4.10156 -0.205549 -2.51167 
335 1 1 0 0 10.6285 4.12025 13.7402 -0.108962 0.121492 -0.0233731 0 
76 2 0 -1 1.86172 12.414 3.75059 19.638 2.79013 3.53433 -1.56739 -0.751159 
162 2 0 1 2.12228 12.0676 1.78771 14.0876 -2.11851 -1.57235 -3.00067 4.47977 
96 2 0 -1 2.61718 17.5452 0.100337 18.9203 -0.332207 -0.0323079 -3.58211 6.41369 
355 1 1 0 0 10.7612 4.82872 19.1933 0.0337201 -0.0528153 0.127264 0 
151 1 1 0 0 16.4478 8.0491 18.9032 0.040342 -0.0595265 -0.283735 0 
732 2 0 -1 1.41777 19.6121 8.73552 15.3139 -1.05669 -0.621296 1.06626 -1.76626 
217 1 1 0 0 0.875329 8.09874 18.2343 0.220327 -0.130892 -0.404431 0 
720 2 0 -1 1.82363 17.0132 7.45316 18.9357 -4.45659 -2.39337 -0.841381 -6.14122 
232 2 0 -1 2.49608 15.9126 6.49203 13.1346 0.577181 -2.5591 -3.23474 2.52378 
717 1 1 0 0 9.49517 3.13524 17.1087 -0.381321 0.139836 0.286902 0 
168 2 0 -1 2.67095 16.3205 2.63243 13.6388 -1.60666 1.10142 -0.800075 0.0786697 
614 2 0 1 2.40588 16.8656 10.2698 14.9096 6.12363 3.17714 0.0547891 0.623506 
550 2 0 1 2.00185 5.51259 6.04734 18.4327 1.11309 -1.48799 3.72932 -1.10351 
27 1 1 0 0 3.57566 6.91582 19.7031 0.0805148 0.0632599 0.0623574 0 
602 2 0 1 1.69193 11.1202 7.7043 15.1136 -4.87224 3.08778 -4.47201 0.394078 
455 1 1 0 0 11.6325 5.46003 17.2156 -0.00796443 -0.0668362 0.0883712 0 
571 1 1 0 0 5.52256 2.06925 13.8354 -0.0891833 0.182667 -0.103956 0 
457 1 1 0 0 16.2352 2.50372 18.5929 -0.0250058 -0.0826241 0.309914 0 
123 1 1 0 0 7.99399 2.08124 18.7727 0.241614 -0.024727 -5.79188e-05 0 
497 1 1 0 0 2.39592 0.643774 13.9107 0.00830504 0.116819 -0.27358 0 
634 2 0 1 2.05502 15.8979 2.77803 14.4851 0.911892 1.18717 -0.370406 -0.630118 
80 2 0 -1 1.90215 17.4293 6.52894 16.6714 -0.184438 -1.84821 -1.81377 4.66349 
454 2 0 1 2.43642 2.66862 7.05923 17.6581 0.973273 -0.124907 -3.68248 -1.27464 
845 1 1 0 0 15.2127 6.60181 19.9661 0.294362 0.0150585 0.134765 0 
574 2 0 1 1.67202 12.0571 2.9596 15.7636 0.22858 -0.33391 -2.96204 2.50324 
791 1 1 0 0 17.4132 6.66993 15.7365 -0.185218 0.243707 -0.153596 0 
689 1 1 0 0 0.297064 5.10714 16.4027 -0.0672125 -0.306233 -0.139664 0 
169 1 1 0 0 5.51413 5.74526 19.3697 0.441253 0.0233542 -0.206503 0 
354 2 0 1 2.31025 5.68514 6.72673 15.3247 -0.955331 -2.4435 -3.92172 0.40221 
501 1 1 0 0 6.25147 4.10192 15.9532 0.0179125 0.0292628 0.284302 0 
558 2 0 1 2.14048 7.99737 9.09979 16.3687 3.40031 0.993616 1.86403 -3.09601 
610 2 0 1 1.69795 16.523 0.828345 15.8221 1.40294 -3.8569 -3.4456 -2.57247 
467 1 1 0 0 7.46642 7.37222 14.4739 -0.0589514 -0.086568 0.375642 0 
73 1 1 0 0 20.0399 8.72169 16.7307 -0.205896 -0.504407 -0.390546 0 
499 1 1 0 0 17.1047 9.37296 15.0635 0.414714 0.139771 -0.0657775 0 
211 1 1 0 0 9.43834 4.30983 14.9137 0.197178 0.216661 0.143441 0 
21 1 1 0 0 18.9133 3.64566 18.1036 -0.258229 0.522733 0.479213 0 
692 2 0 -1 1.43877 7.423 9.32792 18.8978 -0.258861 -0.93515 -0.539311 -0.600116 
809 1 1 0 0 13.9353 9.13043 15.5138 0.212533 -0.189327 -0.0265371 0 
615 1 1 0 0 12.6603 7.61784 15.5718 -0.19569 0.00808026 0.0237626 0 
516 2 0 -1 2.19398 8.72703 9.30219 17.4997 4.00486 -3.85524 -1.57203 2.8268 
480 2 0 -1 1.829 12.2705 9.57712 15.4763 -5.76549 2.78958 2.75021 -2.57194 
702 2 0 1 2.24603 5.93902 7.08259 13.82 -1.12289 1.58567 -0.396562 -1.93097 
179 1 1 0 0 10.6242 2.60877 14.1524 0.382338 -0.17295 0.0880013 0 
471 1 1 0 0 14.2922 7.14987 17.1248 0.0875186 0.0879519 0.0898832 0 
288 2 0 -1 1.77628 18.6514 2.8647 14.1417 -1.37306 2.21926 3.22441 0.666176 
63 1 1 0 0 3.88891 8.71945 15.5992 0.134984 0.0603151 -0.0510356 0 
623 1 1 0 0 16.5799 8.53139 16.5203 0.220797 -0.2975 -0.199373 0 
627 1 1 0 0 17.8567 3.95043 19.7972 0.24147 0.0582344 0.335178 0 
342 2 0 1 2.01214 16.5244 6.03499 18.0123 7.83455 1.43977 -0.23659 -1.65572 
291 1 1 0 0 6.28529 6.79451 15.8139 0.128894 0.427417 -0.253521 0 
3 1 1 0 0 17.9558 0.991758 18.9302 0.338665 -0.12097 -0.264444 0 
812 2 0 -1 1.53501 18.5958 3.50506 18.8365 -0.7312 3.17531 -1.04713 0.757427 
246 2 0 1 1.32814 13.4575 8.69533 15.4597 -0.652514 2.82482 3.54555 -2.82913 
317 1 1 0 0 7.779 3.04565 14.4555 0.361713 0.242068 -0.0914143 0 
647 1 1 0 0 14.5794 5.46081 15.7004 0.238916 0.195468 -0.0363588 0 
772 2 0 -1 2.68056 0.191803 0.714089 17.7263 -2.20352 1.1156 2.4351 -2.50384 
859 1 1 0 0 19.8285 2.22732 13.9749 0.0745896 0.0753948 0.343632 0 
390 2 0 1 2.16401 19.6799 10.0462 14.7632 -2.39219 -0.343079 -1.24697 3.03089 
408 2 0 -1 2.4201 19.5477 6.59121 18.6263 0.0881523 0.336927 3.7439 -2.99513 
186 2 0 1 1.38517 6.20493 2.8622 18.9642 0.0807706 0.792272 3.18853 0.208227 
324 2 0 -1 1.91711 11.4697 6.68799 17.4199 2.35367 -1.52034 -3.81051 -2.34852 
698 2 0 1 1.83395 3.98858 2.07252 17.1909 1.03383 -3.36157 -0.138831 -1.21466 
743 1 1 0 0 5.50692 3.76498 14.3849 -0.0712713 -0.025356 -0.247002 0 
194 2 0 1 1.5346 6.5632 4.21596 16.6152 -0.762601 -1.58721 -0.485698 -1.97761 
434 2 0 1 1.62321 0.197132 8.30102 17.2258 0.382687 -1.25286 -1.04395 -1.5442 
312 2 0 -1 2.11685 11.7327 10.1422 18.4121 0.422948 2.25795 -6.10546 2.22893 
444 2 0 -1 2.05477 14.7069 6.54305 18.9473 -1.11052 1.01724 -2.14436 -2.59265 