ITEM: TIMESTEP
2100000
ITEM: NUMBER OF ATOMS
864
ITEM: BOX BOUNDS pp pp pp
0.0000000000000000e+00 2.0107868000000000e+01
0.0000000000000000e+00 2.0107868000000000e+01
0.0000000000000000e+00 2.0107868000000000e+01
ITEM: ATOMS id type q c_1a[1] c_1a[2] x y z vx vy vz c_1a[3] c_peatom c_keatom 
53 1 1 0 0 2.90074 0.585046 1.09483 -0.047094 -0.163623 -0.118315 0 -0.39762 0.0231088 
229 1 1 0 0 0.385842 3.00594 2.51744 0.108777 -0.162378 0.172712 0 -0.248817 0.036569 
699 1 1 0 0 0.981655 4.57225 0.747682 -0.1129 -0.103041 -0.104357 0 -0.346722 0.0184135 
825 1 1 0 0 0.224971 1.22059 4.31602 -0.111479 0.0473288 -0.15963 0 -0.277937 0.0215824 
243 1 1 0 0 5.44768 2.09445 1.67831 -0.0306365 0.0262105 -0.0865197 0 -0.448086 0.00489777 
502 2 0 1 1.7527 5.08709 2.18561 1.07373 0.951658 3.24016 4.25502 0.00854001 0.0243225 0.0786852 
691 1 1 0 0 6.36749 2.04826 3.67581 -0.287123 0.031961 0.0601365 0 -0.368305 0.0468087 
268 2 0 -1 1.84643 5.25129 2.01356 1.02102 1.72251 0.285447 -0.217558 -0.0249947 0.0710614 0.00825608 
473 1 1 0 0 2.74816 3.3366 4.47746 0.0203804 0.237545 -0.131152 0 -0.250928 0.0398024 
604 2 0 -1 1.71723 2.34092 0.0784263 0.820369 -3.12691 -0.860054 4.4294 -0.0187885 0.0156432 0.0803586 
705 1 1 0 0 4.64309 3.23169 0.935489 0.2414 -0.00284986 0.0677249 0 -0.332765 0.0337953 
484 2 0 -1 1.7359 1.05744 3.08389 0.956354 -0.219109 -1.10816 -0.0486904 0.0277848 0.098309 0.00341031 
324 2 0 -1 1.68718 0.138378 0.963813 3.23836 0.675659 4.33516 2.88496 -0.00275028 -0.0434549 0.0735218 
361 1 1 0 0 3.83147 0.187157 4.89825 -0.119474 0.209281 -0.0734489 0 -0.371577 0.034117 
504 2 0 -1 1.74435 4.3054 0.653122 4.79102 2.4232 -2.31562 -2.85643 0.0286421 0.0732454 0.0517123 
822 2 0 1 1.93343 5.1051 0.130053 4.61884 1.70591 3.08046 -4.83517 0.050062 0.116854 0.0954053 
418 2 0 1 4045.45 6.35506 1.89625 0.355616 -14.2513 43.6962 -52.3898 -1.67243e-08 -0.000135436 12.9512 
145 1 1 0 0 0.281768 4.03891 6.94292 0.0736573 0.0283304 0.119945 0 -0.376771 0.0110816 
96 2 0 -1 2.01606 2.85287 3.17822 9.90043 5.02872 0.806837 4.39972 0.0308572 0.139856 0.120782 
561 1 1 0 0 3.26404 5.0262 5.18039 -0.00763254 0.0344781 0.0609075 0 -0.272337 0.00266449 
109 1 1 0 0 1.56452 2.48284 5.34243 -0.013241 0.272306 -0.133254 0 -0.291616 0.0494993 
662 2 0 1 1.88307 3.97859 4.86209 5.95577 -6.3323 -0.923752 0.983392 -0.0067645 -0.0116169 0.111773 
603 1 1 0 0 5.61222 1.3511 5.42771 0.255021 0.135699 0.00646885 0 -0.349076 0.0448812 
673 1 1 0 0 5.36026 4.5747 5.83486 0.0351684 -0.165758 0.0490691 0 -0.326517 0.0167288 
555 1 1 0 0 1.39991 0.690692 9.79871 0.0304581 0.0800218 0.0195976 0 -0.268725 0.00414735 
222 2 0 1 1.91995 4.49546 2.02609 9.47937 -1.2075 1.49361 1.03325 0.0317608 0.0812206 0.0126849 
380 2 0 -1 1.77479 0.524818 4.70436 7.04645 -1.95302 -4.27131 -5.84085 -0.028593 0.126849 0.149785 
314 2 0 1 1.79104 6.11892 0.782771 6.40427 2.24999 -0.324694 -4.19803 0.0224397 0.103664 0.0607726 
32 2 0 -1 1.73403 2.19211 3.3196 5.33824 -2.2656 0.504037 1.93646 0.0182572 -0.0650753 0.0243636 
802 2 0 1 1.74191 1.8437 3.07058 5.11401 1.2418 0.918075 0.293335 0.00162134 -0.115761 0.00658869 
342 2 0 1 1.61419 0.651573 0.124102 10.3844 -1.91953 -4.61464 4.25966 -0.0252632 -0.0666374 0.114989 
859 1 1 0 0 2.9811 0.963351 13.8508 -0.313274 -0.051795 -0.0659949 0 -0.355967 0.0565389 
641 1 1 0 0 3.91515 2.47169 10.2598 -0.0856468 -0.106088 0.00058412 0 -0.459833 0.00999332 
250 2 0 1 1.77333 5.87432 2.7911 12.6397 4.40232 -0.292668 -1.49812 -0.0239134 0.0366505 0.0578906 
38 2 0 1 1.77388 2.53687 0.165516 12.984 1.49618 2.6218 -0.26813 0.0184369 0.0519665 0.02449 
679 1 1 0 0 0.129737 4.36775 10.1822 0.225423 -0.300758 -0.120162 0 -0.563636 0.083702 
581 1 1 0 0 0.640215 2.92824 13.755 0.125636 0.00201999 0.191004 0 -0.490452 0.0280985 
772 2 0 -1 1.60032 0.997824 0.47025 10.406 -0.0159374 2.98022 3.66484 -0.0533282 -0.105992 0.0595019 
385 1 1 0 0 1.38704 0.603223 11.2564 -0.0198509 0.0725925 -0.0284807 0 -0.296038 0.00348059 
749 1 1 0 0 5.67615 2.65491 12.6991 -0.149664 -0.0848786 -0.0510969 0 -0.493102 0.0173171 
594 2 0 1 1.81866 4.72527 4.47715 14.5247 2.99841 -1.17209 -2.00059 -0.018275 0.0743797 0.0383082 
308 2 0 -1 1.80246 0.887457 3.12622 13.394 -2.69665 2.69788 -0.844774 0.0207973 0.0539871 0.0407016 
224 2 0 -1 1.74121 5.82003 1.85719 12.6591 -1.21505 -0.565529 -5.79675 0.0528816 0.0980921 0.0943933 
468 2 0 -1 1.80875 0.08094 4.68536 10.1484 -0.139658 -3.11209 -1.93209 -0.0363775 0.193604 0.0358331 
692 2 0 -1 1.6601 4.08698 2.61735 15.6843 -1.86046 1.25914 3.05842 0.0185755 0.0386085 0.0383992 
478 2 0 1 1.61299 4.40121 1.07352 16.0732 -1.68796 -3.0342 -1.83516 0.00281559 0.012439 0.0411254 
563 1 1 0 0 3.93204 4.52048 15.3536 -0.0187393 0.0219727 -0.072651 0 -0.362318 0.00328559 
39 1 1 0 0 0.287184 0.066922 15.1984 -0.254123 -0.00376742 -0.0650433 0 -0.201115 0.0369963 
112 2 0 -1 1.72196 3.28544 2.96785 18.7443 -1.86221 -1.31281 -0.704609 -0.028595 0.177947 0.0151676 
26 2 0 1 1.78 2.71561 3.11215 18.128 3.02021 0.590443 1.52822 0.00384753 0.0474489 0.0314792 
599 1 1 0 0 0.364312 0.231503 18.9153 -0.0167904 -0.206923 0.0286529 0 -0.299986 0.0236093 
189 1 1 0 0 3.78433 1.25798 16.3714 -0.137321 0.177937 -0.0860646 0 -0.339619 0.0311381 
405 1 1 0 0 1.6901 2.4806 17.9872 -0.054534 -0.2 0.042562 0 -0.315315 0.0240745 
281 1 1 0 0 3.09798 2.98655 18.8117 -0.306011 0.301073 -0.136522 0 -0.540918 0.109083 
803 1 1 0 0 6.06474 2.29988 17.929 -0.156997 0.179522 -0.148072 0 -0.518644 0.04236 
199 1 1 0 0 1.19176 4.64231 17.5288 -0.0478202 -0.430759 0.144826 0 -0.412106 0.112249 
343 1 1 0 0 0.227201 3.35409 19.6204 0.0248951 -0.379917 0.307159 0 -0.313146 0.128638 
530 2 0 1 1.79816 1.27603 0.104751 18.473 -5.78311 -0.197634 5.24646 0.0272267 -0.0809167 0.162677 
133 1 1 0 0 4.57528 2.57167 15.1931 -0.0119701 0.209814 0.265108 0 -0.397663 0.0615216 
848 2 0 -1 1.76312 0.969396 0.674145 18.4724 0.0959878 -1.26045 2.71444 -0.000961928 -0.0194158 0.0239075 
402 2 0 1 1.66942 6.47777 2.13686 17.8272 4.62648 0.992708 -1.30036 0.000868351 0.0945047 0.0642097 
317 1 1 0 0 6.65146 4.28742 15.7232 -0.203505 -0.0739943 0.114956 0 -0.497144 0.0323093 
80 2 0 -1 1.82209 1.10759 4.25007 16.7323 -5.27193 -4.61624 -5.42732 0.0227252 0.0379744 0.209472 
642 2 0 1 1.8665 0.680745 4.816 16.3528 -2.17943 -0.465789 1.51364 -0.00127017 0.0310897 0.0193529 
158 2 0 1 1.72922 0.208766 4.423 19.971 -2.26914 -0.363192 1.03062 -0.00790166 0.0109857 0.0169135 
139 1 1 0 0 3.01259 8.09631 1.27925 0.179574 -0.0576445 -0.0171975 0 -0.457728 0.0192795 
255 1 1 0 0 3.91811 5.16177 0.820384 -0.053185 0.178936 -0.324608 0 -0.308378 0.0753739 
399 1 1 0 0 1.46764 7.49981 3.70227 -0.179299 0.0290925 -0.22583 0 -0.399314 0.045151 
205 1 1 0 0 5.48761 9.38137 3.15536 -0.0319875 -0.0323793 -0.139067 0 -0.287489 0.0115096 
169 1 1 0 0 6.17523 8.24523 1.19359 -0.116829 0.197154 -0.204426 0 -0.334499 0.0506957 
623 1 1 0 0 4.90182 5.87992 2.59591 0.251144 0.154806 0.0987591 0 -0.431732 0.0520305 
440 2 0 -1 1.82226 6.28055 8.67006 1.03482 3.79577 -0.350173 0.253931 -0.0300875 0.00817448 0.0389183 
62 2 0 1 2.01681 4.75963 5.20159 2.60971 -0.616191 -3.63384 3.09885 -0.00932363 -0.0296176 0.0618276 
569 1 1 0 0 1.90585 9.75 0.89145 -0.0841271 0.453083 0.254274 0 -0.372462 0.148911 
241 1 1 0 0 6.15813 6.12762 4.72832 0.237685 -0.181884 -0.138746 0 -0.388299 0.0585 
14 2 0 1 1.76837 1.39028 7.371 4.41633 0.909523 0.180395 -2.8641 -0.024818 -0.0304158 0.0241667 
720 2 0 -1 1.95469 4.7126 8.7937 4.44474 2.95001 4.4335 -2.34859 -0.0077543 -0.00755425 0.0903237 
575 1 1 0 0 2.04843 7.21349 4.88497 0.0307039 0.128847 0.173976 0 -0.357505 0.0257015 
132 2 0 -1 1.72936 2.97449 7.95572 1.66156 -1.65239 -0.671849 1.11686 -0.0148602 0.0868138 0.0118105 
787 1 1 0 0 0.476043 5.04482 3.96589 0.215719 0.025795 -0.0437601 0 -0.335804 0.026402 
544 2 0 -1 1.70048 4.44725 5.32603 2.42237 -4.19883 0.469412 0.550413 0.0369938 0.0361298 0.0484078 
538 2 0 1 1.89803 1.98751 9.62522 0.938744 -1.12366 -7.11987 1.96633 -0.0699116 0.0585559 0.148854 
536 2 0 -1 1.7714 1.58168 7.05113 4.28076 -4.71138 -2.44822 1.48933 -0.0564233 -0.020298 0.0810899 
528 2 0 -1 1.75522 0.395112 5.37497 0.235337 3.20223 1.47939 5.90203 -0.0438858 0.0706469 0.126064 
474 2 0 1 1.67877 1.2858 6.62965 7.88251 2.0765 0.376801 0.0544365 -0.0139093 0.0765885 0.0118842 
403 1 1 0 0 1.92648 6.19162 8.4598 0.237873 0.0983788 0.0672978 0 -0.439522 0.0380539 
487 1 1 0 0 5.61859 8.08375 8.36929 0.146421 0.153414 -0.0617241 0 -0.215987 0.0262244 
675 1 1 0 0 0.821707 6.60696 7.25882 0.137184 -0.152507 -0.240625 0 -0.471449 0.0537435 
697 1 1 0 0 2.21133 9.95666 9.08512 -0.0685073 0.305094 0.0460092 0 -0.260157 0.0536976 
677 1 1 0 0 4.83637 9.15374 5.2412 -0.227683 -0.0442691 -0.204095 0 -0.415527 0.0513115 
122 2 0 1 1.74348 0.855236 9.64069 6.26513 1.65188 0.197299 -4.50876 -0.041801 0.0551542 0.0615887 
564 2 0 -1 1.74791 5.54545 8.68149 8.97873 3.04969 -1.05066 -4.12253 -0.042526 -0.0934475 0.0730634 
458 2 0 1 1.80157 3.85446 5.37217 9.61572 2.36311 0.0192505 1.35084 -0.011481 0.0996014 0.019757 
861 1 1 0 0 4.66383 9.35966 9.28083 -0.0974971 0.00890593 -0.0914626 0 -0.20283 0.00964929 
777 1 1 0 0 2.94694 9.82774 6.68422 0.0210759 0.198941 -0.0709051 0 -0.266689 0.0242163 
225 1 1 0 0 0.212894 9.24224 5.86187 -0.113116 -0.282832 0.215681 0 -0.41853 0.074885 
101 1 1 0 0 0.162142 9.04112 7.39593 0.107598 -0.0506721 -0.261584 0 -0.20689 0.0443864 
696 2 0 -1 1.83237 1.47702 7.08794 7.7684 4.16272 -4.83739 0.0632419 -0.0102112 0.0689792 0.108611 
91 1 1 0 0 4.19418 5.3888 9.00429 -0.244218 0.0585977 0.134541 0 -0.362627 0.0436372 
526 2 0 1 1.83187 2.90236 9.35757 8.34644 4.80453 6.19297 0.186019 0.024472 -0.0466869 0.163909 
296 2 0 -1 1.82723 5.59436 5.49827 5.46168 3.90926 -1.26351 4.92709 0.0129015 -0.0341359 0.109737 
586 2 0 1 1.80725 5.05834 9.39547 5.29769 -3.07233 4.67076 2.77456 -0.00272973 -0.0312369 0.103867 
566 2 0 1 1.8426 6.06916 9.94 9.9639 2.64557 -3.30094 1.92416 -0.0237729 -0.190403 0.0575897 
11 1 1 0 0 0.962276 8.87887 11.1736 0.222189 -0.102222 0.551001 0 -0.372176 0.195357 
627 1 1 0 0 2.25197 7.23307 10.7508 0.0341598 0.214586 -0.158873 0 -0.355271 0.0389483 
765 1 1 0 0 5.26573 5.09201 13.6963 -0.0689734 -0.0576162 0.000451898 0 -0.434895 0.0043419 
522 2 0 1 1.77505 1.26986 6.28159 11.3681 -2.73385 -0.504896 0.0891791 -0.00732285 0.156922 0.0206298 
167 1 1 0 0 0.849466 5.73707 11.1606 0.0793501 -0.117737 0.0238974 0 -0.536074 0.0111432 
823 1 1 0 0 3.29661 5.98058 11.7921 0.140254 0.323024 -0.227255 0 -0.46383 0.0944269 
628 2 0 -1 1.81856 1.57491 9.84109 11.3885 8.48288 -1.40294 1.19048 -0.0074754 -0.00150306 0.200902 
429 1 1 0 0 4.37522 7.01916 12.3414 -0.0500816 -0.22247 0.241844 0 -0.421724 0.059394 
19 1 1 0 0 4.395 8.37458 14.0175 0.0761149 -0.0919957 0.168545 0 -0.441826 0.0229341 
796 2 0 -1 1.80589 3.83398 5.72509 12.3857 -1.46915 -1.31938 -1.86241 -0.0126588 0.149704 0.0196458 
452 2 0 -1 1.71788 4.5 9.22791 12.3329 -0.886239 1.84526 1.08345 0.0608939 0.145504 0.0143109 
313 1 1 0 0 1.78469 7.79567 14.6858 -0.158874 0.0675806 -0.0219601 0 -0.432696 0.0162826 
703 1 1 0 0 6.15746 9.47818 10.369 -0.177093 -0.01812 -0.206579 0 -0.23806 0.0399751 
152 2 0 -1 1.75695 5.42952 6.01266 14.7657 -4.61551 2.07346 -3.32076 0.00559686 0.264637 0.0976704 
365 1 1 0 0 5.21649 9.7981 13.2159 0.265719 -0.115948 0.0643092 0 -0.440601 0.0474046 
104 2 0 -1 1.82593 1.63728 6.70714 11.0974 -0.814919 -2.76124 -0.396102 -0.0346911 0.101116 0.0225216 
360 2 0 -1 1.65123 2.13274 7.21886 14.5614 -2.58277 1.10954 -0.240748 0.0237643 0.137088 0.0212252 
666 2 0 1 1.65401 4.66173 9.01726 14.6142 3.28721 -4.05779 0.867221 0.00566076 0.246085 0.0747227 
694 2 0 1 1.79483 4.46783 6.51651 11.9458 1.53649 -0.285659 -2.20539 -0.0345791 0.108033 0.0194838 
762 2 0 1 1.73869 6.37078 9.30145 12.8631 1.00563 0.0418653 2.69838 0.0295288 0.183079 0.0221179 
714 2 0 1 1.74184 1.22683 9.94955 11.2691 1.53788 -2.25189 -1.87433 0.00674351 0.00636929 0.0291953 
758 2 0 1 1.88141 2.67982 6.91129 19.6371 9.01045 0.582359 2.44053 0.0361223 0.140936 0.233271 
103 1 1 0 0 4.96789 6.34171 19.4422 0.051722 -0.0162537 -0.166056 0 -0.32639 0.0164029 
813 1 1 0 0 4.84996 9.20357 18.0934 -0.177732 0.0347142 0.0698648 0 -0.495979 0.0202521 
644 2 0 -1 1.71453 4.66141 6.76301 17.151 3.08838 -4.35371 2.75561 0.00712183 0.168565 0.0962217 
789 1 1 0 0 3.09043 9.7139 15.8954 0.0184684 0.109907 0.170731 0 -0.431451 0.0223459 
147 1 1 0 0 1.91808 7.65572 18.9525 0.22904 -0.233534 0.0707309 0 -0.553965 0.060206 
426 2 0 1 1.75537 4.71412 7.33864 17.012 1.85052 -2.04122 -1.19899 0.0152772 0.192511 0.0240746 
573 1 1 0 0 0.525435 5.70307 19.7984 0.198737 0.212148 0.0914319 0 -0.436333 0.0499185 
364 2 0 -1 1.7888 1.58568 7.86018 18.5202 2.64777 -1.30542 1.33701 -0.0167787 0.183621 0.0280044 
171 1 1 0 0 0.588701 5.24942 15.5742 -0.152414 0.207097 0.138331 0 -0.434413 0.0458286 
272 2 0 -1 1.77359 4.24242 9.77929 18.0098 0.967456 5.36773 1.07355 -0.023071 0.11916 0.0823964 
601 1 1 0 0 3.51644 6.3228 17.3406 0.116661 0.152062 -0.154239 0 -0.418718 0.032534 
459 1 1 0 0 4.9338 6.89073 16.3375 0.185561 0.152144 -0.114638 0 -0.564061 0.0380172 
351 1 1 0 0 1.33616 9.91147 15.2539 0.12451 -0.103013 -0.269652 0 -0.415641 0.0531245 
276 2 0 -1 1.80649 3.94852 5.21801 19.4446 1.56904 -1.72498 -2.62285 0.0233301 0.166056 0.0328429 
423 1 1 0 0 6.48019 5.89464 19.3358 -0.206502 0.110406 0.0499721 0 -0.303231 0.0308176 
753 1 1 0 0 0.206336 8.35218 17.1609 0.383976 -0.0627488 -0.201133 0 -0.486981 0.103118 
598 2 0 1 1.71861 6.053 5.87985 19.5779 0.402748 5.06275 1.11548 -0.0665698 -0.0304842 0.0721036 
102 2 0 1 1.74314 2.28549 9.51831 15.5156 -1.68317 -6.07381 1.3369 -0.0163724 0.0669589 0.110688 
806 2 0 1 1.73277 4.21322 9.75743 17.9918 -1.54065 -2.66867 -4.331 -0.0298062 0.154907 0.0753363 
506 2 0 1 1.81019 2.31827 14.9887 2.80365 0.391589 3.4203 1.01929 -0.00891452 0.110343 0.0343724 
846 2 0 1 1.8723 4.13969 11.8167 1.50125 0.759338 -0.373981 0.23513 0.021926 0.111216 0.00205876 
61 1 1 0 0 2.01988 12.3276 4.7668 -0.0116131 0.0815412 -0.0927739 0 -0.353747 0.00827338 
461 1 1 0 0 2.42214 14.6524 2.273 -0.120744 0.0129178 0.201051 0 -0.454185 0.0296555 
239 1 1 0 0 6.12445 13.3475 1.45911 -0.0523779 -0.00942319 -0.198804 0 -0.499294 0.0227683 
143 1 1 0 0 5.65521 13.5061 4.5047 0.00996315 -0.158572 0.0727352 0 -0.34706 0.016414 
653 1 1 0 0 0.217283 10.7745 2.31793 0.0502505 -0.184167 0.0460756 0 -0.368711 0.020731 
279 1 1 0 0 1.92908 11.1887 3.64064 0.121507 0.08024 -0.0797036 0 -0.410102 0.0148123 
531 1 1 0 0 4.35336 11.7121 2.08346 -0.0308922 0.101787 -0.609494 0 -0.541953 0.205774 
711 1 1 0 0 0.472225 12.9623 4.30071 -0.0610566 -0.443148 -0.124646 0 -0.534723 0.11592 
607 1 1 0 0 2.63002 12.525 0.782382 -0.108644 0.178291 0.213929 0 -0.431244 0.0480339 
124 2 0 -1 1.70341 6.30084 12.9378 4.40443 0.177284 -1.25705 -1.2748 -0.0220435 0.0535663 0.00863151 
518 2 0 1 1.81402 2.26054 11.3745 4.22562 3.59972 2.60949 -1.91743 -0.0454117 0.0337928 0.0625159 
568 2 0 -1 1.88362 4.73456 11.1602 2.59465 1.85408 1.39685 3.4367 -0.0141321 0.138326 0.0458622 
164 2 0 -1 1.75486 3.28157 13.0582 0.73862 4.4812 -2.23516 2.96513 0.0252911 0.160087 0.0903109 
540 2 0 -1 1.75146 6.57627 13.2633 1.40826 -1.25516 -0.459347 -4.54128 -0.0240448 0.133286 0.0597551 
48 2 0 -1 1.69442 1.34712 11.7808 4.22717 0.709621 4.55681 2.72522 0.00731167 0.0601278 0.0765131 
614 2 0 1 1.76462 0.160036 13.05 4.53892 -5.4106 -6.43437 -1.25589 -0.0269728 0.22749 0.192659 
761 1 1 0 0 6.60429 11.6332 4.37591 -0.27984 -0.144112 0.128814 0 -0.280401 0.0621795 
424 2 0 -1 1.88862 0.974397 13.7708 2.63467 6.07551 -0.259787 0.374665 0.0455008 0.202736 0.0989813 
201 1 1 0 0 4.93044 10.8621 7.46693 -0.0580645 -0.038851 -0.171427 0 -0.215063 0.0184209 
160 2 0 -1 1.62363 5.79362 14.4794 7.82539 -5.05093 4.19117 -0.74015 0.02446 0.0129859 0.116326 
307 1 1 0 0 4.62275 13.4364 8.86816 0.387051 -0.108763 0.212872 0 -0.304917 0.111248 
593 1 1 0 0 3.86611 14.6899 9.94651 -0.0223385 0.108004 -0.472321 0 -0.349458 0.12646 
475 1 1 0 0 6.53892 10.8081 8.9175 -0.19365 -0.0871325 -0.182913 0 -0.275283 0.0422245 
460 2 0 -1 1.71173 3.54812 14.4841 5.95439 -0.42299 1.47375 -1.09566 -0.0175647 -0.0792759 0.00946998 
676 2 0 -1 1.66099 0.0988808 11.9911 7.69533 -0.67688 -1.62881 -1.73378 -0.00372628 0.0563685 0.0163111 
775 1 1 0 0 2.64846 12.5994 8.58503 0.333599 -0.207566 0.15132 0 -0.315768 0.0952918 
30 2 0 1 1.66113 4.76586 13.4696 8.7352 -5.59618 -2.97411 -3.27861 -0.0510787 0.00639754 0.135758 
661 1 1 0 0 2.65576 13.3574 10.0276 0.0169071 -0.150934 0.300167 0 -0.436466 0.0608334 
784 2 0 -1 1.54017 2.92806 13.2012 9.1564 -0.895979 -0.407647 -0.352289 -0.00858785 0.0473515 0.00291472 
191 1 1 0 0 0.74047 13.3993 9.88204 -0.259771 -0.0933356 0.0330137 0 -0.455915 0.0415435 
51 1 1 0 0 3.71258 13.8599 6.1719 -0.174986 -0.138752 -0.284156 0 -0.242719 0.0702134 
517 1 1 0 0 5.20578 14.1066 7.6665 0.0283796 0.0617216 0.267031 0 -0.297751 0.0408113 
113 1 1 0 0 0.664297 10.9382 7.47138 0.0841198 -0.233588 0.246 0 -0.329913 0.0656648 
294 2 0 1 1.68079 0.15792 11.7672 7.64813 0.812315 -2.93947 -3.3319 -0.00226279 0.0282066 0.0544003 
740 2 0 -1 1.78116 6.74325 10.7399 8.66788 3.75683 0.64327 -2.71454 -0.0347968 0.0303771 0.0583874 
864 2 0 -1 1.84928 3.28315 10.2571 7.86634 3.40618 0.693341 1.64644 0.00930908 -0.0934913 0.0394462 
734 2 0 1 1.96561 5.50252 12.0501 6.95623 3.93788 -1.96357 2.00792 0.0160682 0.0118159 0.0623796 
560 2 0 -1 1.70394 0.445992 13.3862 9.99045 -3.45989 -2.39579 -1.51835 -0.047151 0.166751 0.0533757 
374 2 0 1 1.58486 2.48891 12.8903 9.95575 -0.46746 1.40635 -5.00987 0.0105696 0.0668669 0.0727807 
301 1 1 0 0 0.223248 12.7063 12.7598 0.0857617 0.190975 -0.0193818 0 -0.498321 0.023761 
710 2 0 1 1.82261 2.96627 12.1837 12.6579 0.39509 3.76152 -4.67117 0.0039081 0.160966 0.0963248 
510 2 0 1 1.7655 5.90017 12.8864 12.3098 4.56555 -0.644555 -2.89727 -0.0554142 -0.0611324 0.0790761 
849 1 1 0 0 2.33261 14.0807 13.597 0.184974 0.163796 0.00452595 0 -0.418007 0.0328257 
494 2 0 1 1.78091 2.85531 15.0172 13.2469 -2.76566 -3.54924 -1.8018 -0.0235904 0.084666 0.0626421 
356 2 0 -1 1.72598 5.99083 12.5749 14.9882 -0.847771 3.96436 -1.06159 0.0300566 0.199915 0.0468292 
532 2 0 -1 1.83637 3.48164 13.2933 13.3518 -1.99489 0.789246 3.84857 -0.0080181 0.0968039 0.0517661 
59 1 1 0 0 2.43443 12.0499 14.6191 -0.138304 0.483855 0.0979481 0 -0.36023 0.141289 
251 1 1 0 0 1.74347 10.5938 11.3094 -0.137288 0.289382 -0.0610403 0 -0.477656 0.0571502 
297 1 1 0 0 5.54053 11.8329 10.9697 0.0731025 -0.135468 0.19512 0 -0.245415 0.0332031 
253 1 1 0 0 6.14583 12.893 12.1595 0.286131 0.180724 -0.140407 0 -0.278045 0.0721644 
407 1 1 0 0 3.88477 12.7476 12.662 0.155311 0.169948 -0.135696 0 -0.444553 0.0383905 
92 2 0 -1 1.76478 5.04998 11.8353 10.2124 0.190952 2.28859 1.86593 0.00231216 0.0367425 0.0233468 
376 2 0 -1 1.74805 0.0353627 12.4861 13.6019 0.369143 -4.09116 -1.52438 -0.0154457 -0.00453565 0.0511896 
270 2 0 1 1.68136 0.0037957 12.6106 13.2008 0.0885854 1.00671 -3.01957 -0.0111267 0.0298865 0.0270355 
267 1 1 0 0 0.724575 11.9838 18.6248 0.0274108 0.297176 -0.0548666 0 -0.398441 0.0494952 
519 1 1 0 0 4.02339 10.3749 17.1453 0.2373 -0.340822 -0.135978 0 -0.445909 0.102651 
159 1 1 0 0 5.67304 14.0583 18.7266 0.111083 -0.127081 0.054136 0 -0.442104 0.0168898 
195 1 1 0 0 5.93739 10.1965 18.5534 0.0271264 0.0457497 -0.172564 0 -0.433132 0.017528 
137 1 1 0 0 0.726562 14.8295 19.5495 0.315782 -0.164601 -0.123252 0 -0.238407 0.0763339 
436 2 0 -1 1.70387 0.949194 11.6067 18.6921 -1.92245 -0.758788 0.0103398 -0.028894 0.00773148 0.0113918 
70 2 0 1 1.68945 1.51575 11.1194 18.7566 1.61958 -1.10327 1.84289 -0.0172371 0.0871369 0.0192961 
655 1 1 0 0 2.55166 14.8221 18.0434 -0.0224866 0.0211772 0.0100295 0 -0.452217 0.000566964 
10 2 0 1 1.72473 1.39198 13.4698 16.0749 3.0533 1.59269 2.57327 0.00451942 0.0739076 0.0492785 
273 1 1 0 0 1.10936 13.5523 16.0067 -0.290708 0.0133973 0.0839402 0 -0.472467 0.0493133 
500 2 0 -1 1.92763 2.10176 13.8629 15.8464 -6.08523 -2.67406 0.46707 0.015308 0.133766 0.118387 
451 1 1 0 0 5.91172 12.0599 15.095 0.0397542 0.1693 -0.076965 0 -0.635118 0.0194413 
406 2 0 1 1.70448 4.03457 14.5185 18.1218 2.31277 1.21724 5.12325 0.0696696 0.182493 0.0882108 
463 1 1 0 0 4.88732 14.1736 17.1411 -0.0300984 0.169877 -0.302477 0 -0.476122 0.0651817 
395 1 1 0 0 1.64308 10.9066 19.1402 0.109166 -0.268387 -0.131838 0 -0.483761 0.05447 
320 2 0 -1 1.90055 5.33487 13.594 17.8464 -1.60022 -0.895088 -2.91785 -0.0245009 0.127083 0.031667 
196 2 0 -1 1.72479 1.94714 10.2896 15.5518 -0.314901 -2.1332 -2.25142 0.0103519 0.0246464 0.0259141 
118 2 0 1 1.74167 6.07912 12.0037 15.3047 -0.662917 -3.03761 0.788456 0.0065311 0.150736 0.0274328 
40 2 0 -1 1.60262 6.08876 16.0537 4.34966 1.27254 1.99186 5.5688 -0.014223 0.199149 0.0975877 
785 1 1 0 0 1.8498 18.6349 4.50769 0.0429571 0.0589528 0.0606937 0 -0.314255 0.00484038 
515 1 1 0 0 6.1572 16.2642 4.55128 -0.00837776 0.197404 0.011579 0 -0.485226 0.0210573 
841 1 1 0 0 4.13378 16.4413 2.66948 0.0567021 -0.0463482 -0.0603831 0 -0.41699 0.00484302 
337 1 1 0 0 5.55093 16.7122 1.98191 -0.0936461 0.211984 -0.116677 0 -0.426253 0.0361881 
417 1 1 0 0 0.351943 16.1817 0.155565 0.0697699 0.0132195 -0.0339423 0 -0.30379 0.00332996 
567 1 1 0 0 2.57238 19.2098 0.925899 -0.166927 0.178788 0.0478515 0 -0.318336 0.0333925 
546 2 0 1 1.74581 1.97756 18.1369 3.86676 1.88698 -5.49335 -1.46139 -0.0221576 -0.0306176 0.0956544 
509 1 1 0 0 6.64684 18.8773 4.01778 -0.0940922 0.117067 -0.435461 0 -0.306488 0.11406 
553 1 1 0 0 0.951178 16.3711 4.5613 0.196732 0.0405962 0.245433 0 -0.372531 0.0540718 
556 2 0 -1 1.67783 1.63037 18.1761 3.77347 -1.90485 0.751578 1.25365 0.026802 -0.0699373 0.0153733 
838 2 0 1 1.69567 4.77804 16.1684 3.21607 -1.22866 3.2397 5.04136 0.0325954 0.140667 0.0997815 
744 2 0 -1 1.73887 4.94315 17.1973 2.09452 -1.98927 1.97481 -3.36671 0.00497623 0.0460962 0.0511738 
741 1 1 0 0 1.69617 18.64 2.82737 0.000415307 -0.0306861 0.143427 0 -0.29093 0.0115644 
482 2 0 1 1.73651 2.18909 19.803 1.30191 -1.64924 -2.14412 -0.181074 0.000863144 -0.0610938 0.0195984 
780 2 0 -1 1.79429 5.56936 19.1602 5.79488 -3.78437 3.20585 0.607592 0.0362523 0.183483 0.0665784 
52 2 0 -1 1.6135 5.89922 18.3055 8.39982 0.581519 -2.02609 5.4297 -0.032673 0.0023613 0.0904604 
558 2 0 1 1.67174 1.10272 15.7724 7.74731 -1.99435 -0.754083 -4.32018 -0.0320174 0.0645861 0.06189 
185 1 1 0 0 6.34132 16.9883 7.5414 0.217548 -0.173572 -0.0839137 0 -0.184121 0.045421 
443 1 1 0 0 3.75462 16.9209 8.51203 -0.151472 -0.116945 -0.200512 0 -0.33774 0.0412976 
613 1 1 0 0 6.38843 17.0098 9.91613 -0.251866 0.000149011 0.332835 0 -0.260167 0.09365 
357 1 1 0 0 2.05645 19.03 9.57498 0.0329844 0.063455 0.25027 0 -0.281244 0.0364188 
157 1 1 0 0 6.01393 19.9371 6.86875 0.273549 0.168742 0.230021 0 -0.4141 0.0839728 
369 1 1 0 0 0.459538 16.297 7.44584 -0.0159228 0.00586373 0.0626985 0 -0.469927 0.00226795 
584 2 0 -1 1.60242 3.45154 19.6675 8.4487 -2.0316 -1.92146 -0.882935 0.0354085 0.0839962 0.0229311 
217 1 1 0 0 1.39655 15.3715 8.13335 -0.268333 -0.112457 -0.134516 0 -0.463785 0.0552303 
465 1 1 0 0 3.71255 18.4902 6.01296 -0.0891329 -0.213009 -0.370404 0 -0.234563 0.102413 
602 2 0 1 1.63342 3.11824 19.4812 6.24356 1.78047 -1.34315 1.65333 -0.0469857 -0.0462192 0.0205563 
166 2 0 1 1.82159 0.464449 18.6538 7.65238 -1.06646 -1.03313 -2.9737 -0.0459591 -0.0145538 0.0294618 
394 2 0 1 1.72426 4.12822 16.7503 8.42561 -0.407993 -3.77529 -2.37469 -0.0570462 0.115586 0.0534908 
233 1 1 0 0 4.00816 15.4154 6.21847 0.290819 -0.00255301 0.178865 0 -0.366784 0.062665 
855 1 1 0 0 0.823155 18.5147 7.37477 -0.0796536 0.334207 -0.358214 0 -0.386808 0.13243 
111 1 1 0 0 2.63269 20.0317 6.44007 -0.146422 0.100121 -0.270786 0 -0.241597 0.0563295 
305 1 1 0 0 3.29311 19.4469 8.86354 -0.271266 -0.0376335 -0.0726257 0 -0.461934 0.0431526 
127 1 1 0 0 5.73846 18.3939 8.47237 -0.163263 -0.105177 -0.104387 0 -0.348984 0.0261325 
208 2 0 -1 1.6539 0.865421 15.743 7.73531 -1.4986 -3.60766 -3.68237 -0.00836702 0.0248291 0.0768488 
42 2 0 1 1.63031 2.90107 19.1578 9.10147 -0.26916 -8.28749 4.89915 -0.0576317 0.0256024 0.247336 
128 2 0 -1 1.806 0.409923 19.1288 7.14295 1.378 3.40805 0.376051 -0.0108082 -0.0389009 0.0364107 
110 2 0 1 1.67982 4.42887 15.4318 6.06693 0.374528 2.72787 1.67432 -0.00627257 0.00543467 0.0276907 
226 2 0 1 1.67316 0.0838036 16.2759 5.43205 1.52187 -5.37668 -0.241049 0.016619 0.141641 0.0834142 
7 1 1 0 0 5.11273 18.7883 10.791 -0.0860454 -0.140383 -0.237462 0 -0.363459 0.0448854 
434 2 0 1 1.60466 0.224051 16.8174 12.4596 -2.13652 -0.325508 -0.740363 -6.98131e-05 0.0257039 0.0139157 
335 1 1 0 0 4.02192 17.5053 12.3339 0.00904553 0.117976 -0.0960281 0 -0.374447 0.0124828 
36 2 0 -1 1.74484 4.63755 15.9704 13.6792 2.76406 0.679714 0.622367 0.0245175 0.0870362 0.0226376 
728 2 0 -1 1.71193 2.4068 17.1989 10.7654 2.02274 -3.9904 -3.25202 -0.0233253 0.105353 0.0815684 
390 2 0 1 1.78422 5.88148 16.3189 13.749 3.26095 -3.88507 2.03927 -0.0331594 0.16477 0.0796917 
727 1 1 0 0 2.04088 17.0822 10.6972 0.148351 -0.0881304 -0.0735867 0 -0.432528 0.0189164 
392 2 0 -1 1.76574 0.426217 15.6459 12.1009 0.491667 7.08052 0.243199 -0.021667 0.0377815 0.134481 
549 1 1 0 0 0.971284 15.9209 12.5061 0.108244 0.280475 -0.0010791 0 -0.392855 0.0485863 
783 1 1 0 0 3.79629 16.4037 10.3548 0.00550788 -0.066497 0.10582 0 -0.471637 0.00841267 
16 2 0 -1 1.65269 3.7346 15.5013 10.1647 0.311694 -1.92684 -2.27276 0.00154789 0.123812 0.023932 
414 2 0 1 1.8115 4.36218 18.3675 12.8143 1.8906 3.45027 0.619682 0.00893843 0.153803 0.0422971 
704 2 0 -1 1.87762 5.07337 18.6389 11.0133 -5.10649 0.704681 -2.36521 -0.0493132 0.0177968 0.085776 
511 1 1 0 0 2.83366 19.2821 13.4504 0.215189 0.160149 0.101554 0 -0.406478 0.044223 
69 1 1 0 0 5.72375 16.3514 13.753 -0.0980802 -0.0842618 0.00375047 0 -0.523607 0.00899532 
733 1 1 0 0 3.84954 15.2942 13.2861 0.0143601 0.170786 -0.147405 0 -0.456706 0.0274701 
774 2 0 1 1.70367 2.88906 16.1251 10.4756 -2.21497 3.38713 -0.471914 0.00805416 0.167807 0.0442667 
214 2 0 1 1.71412 5.39769 16.2319 10.2677 -2.34069 1.86324 2.58939 0.0240173 0.195684 0.0417454 
856 2 0 -1 1.8536 2.88388 20.0339 13.7425 -5.27889 -4.72616 -1.99379 -0.0121789 -0.0532602 0.144463 
33 1 1 0 0 1.84654 16.2267 16.7872 0.164004 0.0994137 -0.0777431 0 -0.398575 0.0230204 
329 1 1 0 0 4.90329 18.8169 19.5209 0.120593 -0.0585666 -0.127605 0 -0.411385 0.0184143 
652 2 0 -1 1.74798 4.93579 18.1434 16.3571 3.09478 0.94808 -0.531598 0.00957239 -0.0409683 0.0286886 
579 1 1 0 0 1.05205 19.7604 17.3147 -0.145074 0.0233805 0.0884389 0 -0.165496 0.0158118 
265 1 1 0 0 2.66124 18.937 16.2765 -0.184414 -0.00552657 -0.248909 0 -0.193365 0.0516023 
533 1 1 0 0 5.00322 17.9876 17.4132 -0.19288 0.0176484 -0.0194493 0 -0.31009 0.0203691 
107 1 1 0 0 5.12932 19.909 16.3149 0.0227672 -0.00559357 -0.119519 0 -0.241607 0.00797431 
638 2 0 1 1.6973 3.63234 18.6318 15.7789 -1.9666 -2.13777 -1.98583 -0.0219377 -0.0586168 0.0330142 
220 2 0 -1 1.78587 2.85074 16.9026 18.5708 2.80406 1.72392 0.011728 0.0347129 0.135214 0.0288926 
695 1 1 0 0 4.15948 17.9856 15.3319 0.0813998 0.333576 -0.0962706 0 -0.349351 0.0683587 
767 1 1 0 0 3.45146 16.436 17.8145 -0.228597 0.0617587 0.00640831 0 -0.386391 0.0301629 
464 2 0 -1 1.72308 1.1183 18.5376 15.967 1.61376 -0.105477 -2.16616 0.0170809 -0.148155 0.0194858 
445 1 1 0 0 2.88949 17.3765 19.1326 0.320237 0.189205 -0.211225 0 -0.324939 0.098354 
523 1 1 0 0 6.33054 19.6493 17.8171 -0.134579 -0.172124 0.155017 0 -0.352703 0.0385793 
87 1 1 0 0 0.667352 18.0677 15.4634 -0.134284 0.165399 0.0608035 0 -0.358915 0.0263864 
750 2 0 1 1.78611 0.470379 17.7127 15.4969 -3.94168 2.44439 1.59946 -0.0221271 -0.0358397 0.0641825 
284 2 0 -1 1.77149 2.64676 15.9617 17.8631 0.271272 -0.0204645 2.44871 0.0463759 0.167541 0.01619 
254 2 0 1 1.77984 6.29565 18.8025 17.7898 2.52673 5.41819 -0.495984 -0.0179748 0.0592595 0.095958 
246 2 0 1 1.73581 4.6926 17.818 19.5384 1.52375 1.40436 1.1729 0.0405363 0.081173 0.0151212 
4 2 0 -1 1.785 4.62315 19.854 18.9503 -1.02899 1.63196 3.48245 0.0266994 0.134749 0.0422633 
178 2 0 1 1.81181 2.0713 15.9933 17.484 3.36157 2.83105 -1.90906 -0.036877 0.0636137 0.0612227 
634 2 0 1 1.62804 0.625981 15.7618 20.0355 0.0111172 0.64367 1.22797 -0.00980857 -0.0862728 0.00512601 
180 2 0 -1 1.80876 0.176985 16.6881 19.812 -1.66205 0.705216 -4.91813 -0.0170471 -0.146791 0.073188 
686 2 0 1 1.85586 7.5464 3.07257 4.02888 -3.61189 0.729363 2.53423 0.0321235 0.0883198 0.0533307 
712 2 0 -1 1.84125 12.8837 1.09019 0.571917 2.33062 0.786568 1.96 0.00652625 -0.0156813 0.0263766 
259 1 1 0 0 8.73867 1.43433 1.54989 -0.053328 -0.172703 -0.305576 0 -0.333069 0.0677569 
227 1 1 0 0 9.17166 4.76837 2.98809 0.218948 0.0434195 0.169279 0 -0.44851 0.0421866 
58 2 0 1 1.66198 11.7651 0.474063 1.44321 -2.79128 -2.85594 0.332122 -0.0161112 -0.0709227 0.0428178 
126 2 0 1 1.80482 10.899 4.39043 1.85362 0.892235 -1.09541 -0.0897204 0.0409669 0.19401 0.00534702 
45 1 1 0 0 11.2262 4.13115 3.13484 -0.0463713 0.0836519 0.114683 0 -0.365267 0.0119875 
559 1 1 0 0 8.95629 3.08188 4.26242 -0.0822684 -0.218819 0.297343 0 -0.38194 0.0769037 
821 1 1 0 0 10.8741 3.5154 0.736654 0.171763 -0.0752677 0.223261 0 -0.305807 0.0456992 
55 1 1 0 0 9.37517 4.85424 0.904147 0.210885 0.240041 0.209728 0 -0.311697 0.0785244 
587 1 1 0 0 11.3972 2.21723 2.23065 -0.00560711 0.0742878 0.148479 0 -0.264376 0.0148343 
756 2 0 -1 1.71168 12.2196 2.5647 2.87975 -2.20827 2.14188 -0.658006 0.017343 0.128475 0.0263905 
812 2 0 -1 1.68732 9.11653 3.88183 4.43538 -2.89693 1.25313 0.0771736 0.00979447 0.0316674 0.0265805 
840 2 0 -1 1.74944 6.84318 1.64842 3.67681 1.68932 1.17501 -1.19772 -0.0193406 0.0537788 0.0151167 
469 1 1 0 0 11.3734 0.653232 1.22501 -0.026988 -0.00712413 -0.191803 0 -0.26627 0.0201945 
582 2 0 1 1.77613 8.902 2.12257 1.68557 0.192891 3.2751 -3.18453 -0.0196205 0.078067 0.0557416 