ITEM: TIMESTEP
2200000
ITEM: NUMBER OF ATOMS
864
ITEM: BOX BOUNDS pp pp pp
0.0000000000000000e+00 2.0107868000000000e+01
0.0000000000000000e+00 2.0107868000000000e+01
0.0000000000000000e+00 2.0107868000000000e+01
ITEM: ATOMS id type q c_1a[1] c_1a[2] x y z vx vy vz c_1a[3] c_peatom c_keatom 
606 2 0 1 2.40101 3.47767 2.50423 1.12218 2.36003 -0.0775499 4.65329 -3.16789 0.0898114 0.0926733 
492 2 0 -1 1.78185 5.10934 2.10725 4.20709 -2.32588 -1.30487 -3.5461 -5.36995 0.0774342 0.110162 
572 2 0 -1 2.32913 3.9973 0.552183 0.0825413 2.50042 1.34457 -4.29065 0.425919 0.00109321 0.0709423 
507 1 1 0 0 4.47136 3.0101 4.29682 0.161734 0.0538381 -0.217596 0 -0.344534 0.0410713 
459 1 1 0 0 1.38643 2.84066 3.95643 0.173328 0.265361 0.204653 0 -0.217159 0.0765162 
17 1 1 0 0 6.67366 1.74384 0.951403 0.161453 0.0739539 0.219713 0 -0.27728 0.0429021 
182 2 0 1 1.66796 5.70329 2.38268 4.73182 -1.54048 1.78203 0.578212 -0.146129 0.0776184 0.0157295 
853 1 1 0 0 3.91416 1.01264 4.04206 0.266831 -0.0119093 -0.204831 0 -0.293766 0.0609028 
221 1 1 0 0 3.50811 2.98859 0.997071 0.100916 -0.0560851 -0.199302 0 -0.459973 0.0285177 
136 2 0 -1 1.94882 2.24698 2.24452 4.76834 -1.77168 -0.680528 -0.963854 -0.38419 -0.0298088 0.0123767 
632 2 0 -1 2.25797 3.22426 3.90986 0.963497 -0.803301 4.88481 4.19492 1.91913 0.0250426 0.119633 
277 1 1 0 0 5.63429 3.83514 2.81452 -0.00993933 0.254456 -0.475667 0 -0.385995 0.156484 
390 2 0 1 2.67525 2.99962 4.01492 1.22816 -0.972577 -6.31449 0.919141 2.79952 0.0948785 0.126766 
397 1 1 0 0 5.87384 1.9949 4.68824 -0.0835084 -0.0240804 -0.104144 0 -0.520296 0.00989066 
761 1 1 0 0 5.51643 0.934454 8.59336 -0.130527 -0.36899 0.205066 0 -0.479202 0.104953 
602 2 0 1 2.00346 3.18528 1.17623 7.17326 -1.77897 1.69994 1.51221 -2.13465 0.0384412 0.0313542 
283 1 1 0 0 6.49344 4.39431 5.82607 0.283476 0.118822 0.201272 0 -0.484994 0.072563 
776 2 0 -1 1.56882 6.62912 1.28069 9.30352 -0.263508 -4.54123 0.783897 1.64626 0.115745 0.0622327 
21 1 1 0 0 1.64186 4.34471 6.63309 0.365642 0.300422 0.00775529 0 -0.243404 0.120416 
444 2 0 -1 2.22694 0.80283 3.68431 8.54861 1.80212 -0.00385184 1.59282 5.78429 0.0961253 0.0823347 
593 1 1 0 0 3.40105 0.806936 7.01942 -0.111637 -0.186309 -0.118797 0 -0.483367 0.0329448 
556 2 0 -1 1.71772 4.02703 0.735867 7.75877 -3.35951 -0.543845 0.169546 -0.231519 0.136988 0.0310666 
243 1 1 0 0 1.71359 1.92168 8.82578 -0.089168 0.00396931 -0.716373 0 -0.358467 0.280149 
203 1 1 0 0 5.7302 4.29857 9.91357 0.260047 -0.33325 -0.221955 0 -0.362068 0.122532 
494 2 0 1 1.87992 0.253805 1.83705 8.62527 -3.63207 4.28973 -2.22634 0.150269 0.0342483 0.0975041 
662 2 0 1 1.97911 1.81082 4.64694 7.4979 1.34705 1.36695 -0.0227084 3.47493 -0.0248029 0.0339703 
7 1 1 0 0 0.127215 4.48217 7.79408 0.29919 -0.136134 0.108433 0 -0.275246 0.0644016 
44 2 0 -1 1.68715 -0.038443 0.36038 9.19437 -1.45125 0.00436613 4.20649 3.01369 -0.010627 0.0709601 
333 1 1 0 0 4.77046 5.02055 13.2705 -0.0126432 -0.00278599 -0.197977 0 -0.295832 0.0211595 
511 1 1 0 0 2.02079 3.35945 11.2707 0.183323 0.243044 0.311093 0 -0.199149 0.101843 
728 2 0 -1 1.61865 1.23372 1.59508 12.179 2.04669 1.51302 -1.06894 -3.69056 -0.0228287 0.0475584 
321 1 1 0 0 5.86754 0.839418 10.3262 -0.241664 0.140603 0.092608 0 -0.48411 0.046631 
425 1 1 0 0 3.68028 3.40061 12.5038 0.0949521 -0.0393842 -0.054147 0 -0.303552 0.00725637 
627 1 1 0 0 1.64463 3.0534 14.2511 0.0897488 -0.19171 0.142946 0 -0.374418 0.0350704 
512 2 0 -1 1.74606 4.16338 3.84974 12.8978 0.398544 4.38479 4.56347 -1.02583 0.061715 0.109323 
91 1 1 0 0 1.88175 3.64985 13.488 -0.256153 0.261762 0.0972512 0 -0.287604 0.077188 
811 1 1 0 0 0.342445 1.82911 11.6458 0.114307 -0.0759218 -0.0341961 0 -0.255904 0.0107508 
98 2 0 1 1.63872 0.917125 1.08944 11.2332 0.891311 -3.44691 2.39864 -2.72851 0.0803231 0.0640282 
659 1 1 0 0 1.53969 0.73087 11.8137 -0.253634 -0.145969 0.271096 0 -0.312488 0.0855409 
486 2 0 1 1.95422 2.08318 2.21872 10.7712 -2.55047 2.49721 6.08907 -4.14963 0.136701 0.167271 
466 2 0 1 1.54036 1.92524 2.91396 13.9591 -2.35393 0.249561 -1.13268 8.80619 0.00324873 0.173446 
456 2 0 -1 1.47637 1.87335 3.38969 13.9616 1.73926 1.51205 0.776105 1.12518 0.0473535 0.0183002 
841 1 1 0 0 0.526957 4.8133 10.6339 0.42738 0.203818 -0.254254 0 -0.324036 0.155267 
470 2 0 1 2.68239 5.56236 4.46698 11.5123 -5.08367 3.30733 0.0643705 2.77212 0.146979 0.113456 
6 2 0 1 2.02635 5.45682 1.09173 10.6418 -1.60098 -0.961309 1.37805 -3.80878 0.222855 0.0433731 
297 1 1 0 0 2.78457 4.78981 19.7248 -0.442353 0.107501 0.0261823 0 -0.332343 0.111767 
304 2 0 -1 1.46798 1.3923 3.03273 17.0123 2.89954 0.534548 -5.37616 -0.423023 0.119438 0.100605 
574 2 0 1 1.71767 -0.248105 4.24004 16.7837 -3.8124 3.39191 5.82273 -1.03969 0.00687613 0.161997 
349 1 1 0 0 6.57337 2.02405 15.2631 -0.0431183 0.0892879 -0.16007 0 -0.573628 0.0190584 
417 1 1 0 0 0.335344 4.34714 16.6221 0.0519581 -0.0931081 -0.281999 0 -0.311105 0.0488592 
416 2 0 -1 2.01831 6.65252 2.09701 15.6457 3.13383 -1.79514 1.86424 7.49054 0.186432 0.156253 
245 1 1 0 0 4.21106 1.17301 15.899 0.0416533 -0.23991 0.142716 0 -0.415474 0.0428213 
301 1 1 0 0 0.783517 0.836495 17.7913 -0.104485 -0.103212 -0.179054 0 -0.157141 0.028829 
767 1 1 0 0 2.0725 0.672877 15.5023 -0.114856 0.135898 -0.0116643 0 -0.278347 0.0170922 
389 1 1 0 0 2.703 2.13878 16.6535 0.722349 0.048269 0.357123 0 -0.31242 0.350299 
547 1 1 0 0 4.10279 3.4967 17.396 -0.171433 -0.0472511 0.167201 0 -0.35272 0.0320263 
86 2 0 1 1.8064 2.69424 1.41673 16.1079 1.03356 -1.17883 2.71147 3.11104 -0.0838084 0.045513 
653 1 1 0 0 0.706752 2.41996 16.7546 0.0966727 0.0885051 -0.0401579 0 -0.250178 0.0101014 
509 1 1 0 0 2.5309 1.19372 19.8184 -0.183329 0.0954776 -0.179746 0 -0.325187 0.0403348 
596 2 0 -1 1.67005 4.1296 1.71043 16.5375 3.23399 -2.2842 2.09865 -3.47405 0.152882 0.0776795 
709 1 1 0 0 0.220665 0.95502 19.9319 -0.24141 0.183721 -0.0979809 0 -0.199016 0.0546327 
12 2 0 -1 2.10539 5.1971 5.08455 16.7447 5.69156 2.7067 -1.04643 4.33537 0.198118 0.146418 
546 2 0 1 2.1303 4.85594 4.31554 18.0869 3.7154 -2.87602 1.48186 -0.13251 0.0561122 0.0647535 
510 2 0 1 1.86859 1.79218 1.22996 19.6357 -2.65324 0.530097 -3.4443 -2.98637 0.0357757 0.0689878 
80 2 0 -1 1.74528 0.0050883 1.10859 18.2261 -6.57004 0.425606 -3.85961 0.584251 -0.103564 0.155984 
184 2 0 -1 2.201 1.96194 0.505099 15.6721 0.668262 -3.97243 8.1875 -1.61205 -0.0151772 0.227209 
657 1 1 0 0 3.75592 8.04109 4.16252 -0.279998 0.110794 0.0842014 0 -0.239763 0.0525532 
642 2 0 1 1.87805 1.92429 9.1099 3.31197 6.46216 1.73939 -0.0957344 -1.60462 0.0615576 0.12459 
513 1 1 0 0 0.868228 8.4301 4.56851 0.267143 0.214343 -0.102348 0 -0.216261 0.0686903 
60 2 0 -1 1.80447 2.12225 5.95332 3.81249 0.116468 -1.83375 0.1767 5.44946 -0.0215826 0.0684737 
181 1 1 0 0 1.35891 5.99455 4.14616 -0.193789 -0.147198 -0.0812921 0 -0.190794 0.035387 
745 1 1 0 0 2.66036 5.85014 4.50538 0.306309 0.473588 -0.00383041 0 -0.294453 0.171009 
568 2 0 -1 1.85776 0.299222 8.69432 4.03688 0.797822 -2.34875 0.610884 -1.71262 -0.076504 0.0232676 
579 1 1 0 0 6.42462 9.55465 2.85281 -0.146568 -0.101458 0.0429836 0 -0.350161 0.0180744 
862 2 0 1 2.25964 2.87855 6.06827 4.53989 0.529321 -0.782445 -1.87928 2.61262 -0.0776941 0.025447 
705 1 1 0 0 6.2901 8.35888 2.06813 -0.180175 -0.00704148 -0.0906301 0 -0.522365 0.0218925 
529 1 1 0 0 0.0724071 7.00593 0.0307825 -0.108426 0.375424 0.0526714 0 -0.341934 0.0835753 
42 2 0 1 2.05822 6.72373 8.31094 1.51348 4.35582 -0.380337 -1.06478 1.17964 0.164965 0.0567822 
724 2 0 -1 1.52443 6.72162 8.67539 2.06936 0.83991 -1.24028 -2.87553 -1.33968 0.162724 0.0316199 
720 2 0 -1 2.34757 6.48145 5.22987 2.80546 -2.18142 -3.00147 -2.40505 0.191872 0.288373 0.0522069 
199 1 1 0 0 2.37869 5.81348 8.26295 0.143168 0.188215 0.0642378 0 -0.284769 0.0322792 
609 1 1 0 0 4.18393 7.56786 8.35311 -0.195219 -0.482344 -0.298157 0 -0.262818 0.193338 
858 2 0 1 2.3375 2.95351 8.22414 7.82419 2.1182 -1.64755 -6.73974 -1.62405 -0.0824892 0.145596 
308 2 0 -1 2.08893 5.78932 9.72605 5.86325 -5.73709 2.36898 0.100334 0.451812 0.0768457 0.103163 
400 2 0 -1 1.95436 5.15875 4.97741 6.2513 0.618972 -2.5939 0.809044 3.76427 0.177293 0.0490444 
287 1 1 0 0 5.41341 5.46239 7.9018 -0.21756 -0.036943 0.069605 0 -0.371764 0.0287816 
763 1 1 0 0 6.04039 8.25306 5.80377 -0.253572 -0.423505 0.0807223 0 -0.530934 0.13448 
707 1 1 0 0 5.22252 9.69894 9.30371 -0.017667 -0.0694646 -0.201746 0 -0.331361 0.0246409 
56 2 0 -1 1.72138 -0.0983462 7.20336 7.24164 -2.86139 0.920136 -2.07803 -5.97467 0.0743638 0.10699 
440 2 0 -1 2.65103 1.93541 7.16023 6.04247 5.9143 3.23642 -0.0187619 -0.69935 0.0071074 0.122177 
279 1 1 0 0 2.74019 8.76328 6.453 -0.123441 -0.288281 0.103168 0 -0.211497 0.0585864 
373 1 1 0 0 0.405959 7.3487 7.57197 -0.254604 0.201377 0.02948 0 -0.321101 0.0571121 
458 2 0 1 1.82012 6.17199 8.34137 5.59214 0.442027 2.61458 -0.939626 -1.41659 0.231907 0.025116 
482 2 0 1 2.1466 4.29856 5.71238 9.08451 1.11726 5.8472 0.50994 0.603623 0.0769113 0.095915 
256 2 0 -1 1.71539 1.07506 5.54282 9.6791 2.04723 -4.50848 -0.977099 0.988339 0.055539 0.0698734 
530 2 0 1 1.54957 0.813294 5.51096 10.2596 1.43755 3.29503 -1.59579 2.8979 -0.00276323 0.0580448 
819 1 1 0 0 1.92357 8.41648 10.3376 -0.264001 -0.0356135 0.0142489 0 -0.237451 0.0382565 
357 1 1 0 0 6.03905 8.77169 11.8355 -0.118069 0.117922 -0.154055 0 -0.251657 0.0277264 
504 2 0 -1 2.84512 5.47379 8.77689 10.1339 -2.91218 -1.15849 -3.0104 8.57762 0.0506907 0.197495 
207 1 1 0 0 0.873457 6.2507 10.1105 -0.186192 0.370228 0.304098 0 -0.352117 0.142028 
303 1 1 0 0 3.64748 8.93331 14.218 -0.570663 0.0804446 0.0988505 0 -0.173491 0.183788 
545 1 1 0 0 2.60098 6.23955 13.3694 -0.178324 -0.0727569 0.152377 0 -0.31233 0.0324209 
731 1 1 0 0 1.89957 8.67188 14.4779 0.0521767 0.058486 0.0686708 0 -0.179387 0.00583713 
159 1 1 0 0 2.3515 7.91639 11.4889 -0.0119925 -0.0833252 0.0842157 0 -0.250718 0.00762206 
16 2 0 -1 1.83198 -0.246827 6.70498 12.792 -4.8182 -2.0376 -1.2724 1.92817 0.0582172 0.0847239 
148 2 0 -1 1.75303 2.88378 5.90263 13.4291 -2.42777 4.28902 -2.53305 -0.0992095 0.0789119 0.0818955 
730 2 0 1 1.90369 0.512194 7.53151 12.4729 -0.591051 0.97044 6.43621 0.375987 -0.0627464 0.114182 
64 2 0 -1 2.4087 2.06124 9.35538 14.4054 -0.389839 -4.22406 1.21556 -0.428089 -0.109862 0.0522878 
688 2 0 -1 1.29057 1.89725 8.21291 10.7889 -6.96268 2.27179 2.66866 1.63616 -0.0152517 0.16737 
452 2 0 -1 3.0003 5.27209 7.31107 10.4318 2.00847 -0.151405 -2.8485 -0.61922 0.0819932 0.0332195 
18 2 0 1 1.69144 3.5116 8.92062 11.7607 -3.51949 1.31491 -1.30057 -0.842545 0.0381742 0.0435687 
690 2 0 1 1.6403 2.74609 9.10554 14.9014 1.28969 -2.20103 -1.95779 4.96949 -0.119287 0.0769601 
69 1 1 0 0 2.44445 7.93653 18.9442 -0.117643 0.0561601 -0.021235 0 -0.32978 0.00937752 
551 1 1 0 0 5.22439 5.20844 15.9825 0.177419 -0.344916 0.0193229 0 -0.397183 0.0810728 
848 2 0 -1 1.62153 2.47804 7.17877 18.7 4.03838 -3.83808 -1.54951 -0.257854 0.0808532 0.0892995 
490 2 0 1 1.83688 6.24378 7.19243 17.1554 -1.25434 -5.36862 0.727965 2.42696 0.0556295 0.0942397 
2 2 0 1 1.54774 2.17128 5.36501 15.5815 1.52921 3.50128 5.199 2.5189 0.124562 0.123684 
713 1 1 0 0 5.37933 7.60342 15.7238 0.0440069 -0.265835 -0.0620371 0 -0.163909 0.0410977 
217 1 1 0 0 5.10257 6.16627 18.0373 -0.183605 -0.262545 -0.427236 0 -0.307669 0.153294 
121 1 1 0 0 2.01518 6.14904 16.0519 0.0117067 -0.270193 -0.118132 0 -0.291956 0.046819 
327 1 1 0 0 5.23562 8.38127 17.1326 0.121754 -0.0456 0.135874 0 -0.234279 0.0190106 
332 2 0 -1 2.82393 4.17124 6.31692 15.7231 -2.67927 0.112916 -3.71645 -0.185414 0.126241 0.0560725 
143 1 1 0 0 0.945828 8.06661 16.5726 -0.112458 -0.334234 0.157389 0 -0.0914158 0.0801654 
624 2 0 -1 2.2436 5.43506 8.60523 17.11 1.45325 3.58077 0.686705 3.18472 0.0222821 0.0613606 
786 2 0 1 2.61589 5.62405 8.91686 16.1478 5.89446 2.90207 5.68301 -1.09067 -0.00646979 0.203596 
176 2 0 -1 1.71839 6.94753 5.19807 15.4859 6.61095 3.4661 -1.63274 -2.56568 0.323318 0.168842 
339 1 1 0 0 2.90013 10.9418 0.585827 -0.364798 -0.00174798 -0.108381 0 -0.285774 0.0778524 
58 2 0 1 2.25667 5.58707 10.4666 2.54465 2.62329 -5.46844 2.31516 -6.09169 0.130701 0.186589 
41 1 1 0 0 0.441972 13.1608 2.49565 -0.194717 -0.137864 0.470387 0 -0.13015 0.149539 
23 1 1 0 0 1.10961 10.8676 4.55171 0.154731 0.12957 0.128155 0 -0.146773 0.0307233 
368 2 0 -1 1.5132 0.723728 13.6737 3.80439 1.96736 -1.28112 5.27687 -4.87304 -0.0464653 0.136433 
326 2 0 1 1.5577 5.48882 13.8902 2.00537 0.868594 -2.30071 -2.08534 1.25713 0.0642637 0.0308817 
797 1 1 0 0 5.12275 10.7454 3.93752 -0.0144303 0.0996102 0.356294 0 -0.294133 0.0736853 
855 1 1 0 0 4.40645 10.692 2.00536 0.046959 -0.124135 0.122372 0 -0.432347 0.0175185 
795 1 1 0 0 5.59006 13.2955 1.78685 0.075173 -0.421509 -0.232344 0 -0.47277 0.127564 
753 1 1 0 0 1.80154 11.5922 3.15183 -0.033988 0.199101 0.0080307 0 -0.273632 0.0219649 
346 2 0 1 2.05076 1.95408 13.2476 4.6778 5.04771 2.83335 -2.362 3.75776 0.0389689 0.13246 
36 2 0 -1 1.71484 4.17751 10.4076 1.81954 1.9072 1.28722 -3.28125 4.4865 0.0334123 0.0830792 
73 1 1 0 0 5.74717 14.0239 4.08557 -0.0976909 0.0312029 -0.0121833 0 -0.422131 0.0057333 
372 2 0 -1 2.05457 3.12957 12.6741 0.248552 -1.08833 4.92859 1.3152 0.947244 0.0573691 0.0743352 
358 2 0 1 2.4567 5.07067 10.8547 1.79032 -1.82405 1.66543 2.28722 2.17325 0.1021 0.0396618 
833 1 1 0 0 0.618031 13.4349 3.96993 -0.124925 0.0479106 -0.0118959 0 -0.302342 0.00969915 
353 1 1 0 0 5.09144 14.3065 2.04791 -0.237551 0.0450667 0.0760142 0 -0.362087 0.0345322 
681 1 1 0 0 2.48002 14.9189 2.63787 0.00280251 -0.217225 0.114122 0 -0.214666 0.0323705 
670 2 0 1 1.76942 0.712391 11.9969 1.85248 3.06228 4.25969 1.25014 1.39252 -0.0366621 0.0814319 
752 2 0 -1 1.62679 5.76524 13.3875 2.04038 -1.1577 1.53045 -0.632965 0.0101848 0.0492144 0.0108877 
434 2 0 1 1.74516 6.72283 14.0465 4.5955 3.7343 6.27289 -0.358984 -0.274281 0.107315 0.142599 
580 2 0 -1 1.87402 1.48674 11.264 2.84658 -1.47502 4.28561 -1.39327 -3.51188 -0.00577087 0.0846146 
28 2 0 -1 1.60448 0.554049 14.1232 0.65718 3.46683 -2.38319 0.320523 -0.536841 -0.116508 0.0480422 
638 2 0 1 1.40845 3.65167 11.608 6.37758 -3.45799 1.0221 1.33882 -1.96343 0.235258 0.0471589 
450 2 0 1 2.33196 1.01309 13.2485 5.11445 -4.73801 -1.59594 -3.17979 -1.18827 0.0740339 0.0964337 
377 1 1 0 0 4.82509 11.7142 9.26893 -0.019409 -0.147095 -0.178063 0 -0.345973 0.0288774 
117 1 1 0 0 2.67596 12.1371 5.21707 -0.0657315 -0.0401972 -0.22568 0 -0.369297 0.0305696 
528 2 0 -1 2.00952 2.89423 11.8301 5.6537 -2.22826 -1.56287 -3.06726 0.494717 0.00717737 0.0453277 
633 1 1 0 0 1.75354 13.7221 9.21567 -0.203224 0.219431 -0.357675 0 -0.194007 0.116854 
317 1 1 0 0 6.07661 13.5052 8.99328 -0.23054 -0.262126 -0.154256 0 -0.139671 0.0782965 
189 1 1 0 0 4.93981 14.7362 7.36858 0.253439 -0.0259135 0.0703023 0 -0.300034 0.0375454 
195 1 1 0 0 1.80115 14.3372 5.12849 0.0315359 0.187484 -0.0476177 0 -0.273828 0.0206486 
280 2 0 -1 2.61434 0.853051 14.2069 9.67079 -0.513713 -4.97658 -1.7064 -1.0355 -0.0278597 0.0766498 
337 1 1 0 0 2.84062 14.7183 7.69595 0.127115 -0.0796206 -0.224725 0 -0.302372 0.0392408 
621 1 1 0 0 3.8866 11.7167 6.7359 0.0135034 0.0825829 0.180132 0 -0.553094 0.0212064 
802 2 0 1 1.68716 6.01752 13.7333 7.63429 4.86986 -1.86939 -3.00854 2.23563 -0.0537371 0.106684 
380 2 0 -1 1.75038 4.32286 11.2769 9.1432 -2.21257 0.35287 -1.55348 -1.72486 0.0556413 0.0257701 
468 2 0 -1 2.28651 0.263585 10.3098 7.28983 -2.12623 -6.31418 1.1006 6.30468 0.00973508 0.201083 
524 2 0 -1 2.3394 3.52176 14.8494 7.45773 3.14862 -0.788817 3.65945 4.00778 -0.0125727 0.0959232 
584 2 0 -1 1.46724 0.32827 10.3323 12.2181 -2.45559 0.292921 -1.08185 -3.84741 0.12554 0.0490305 
237 1 1 0 0 5.60931 10.7053 14.3499 -0.129762 -0.198903 0.22551 0 -0.291644 0.0576554 
711 1 1 0 0 1.93867 14.7998 11.9112 0.195659 0.524267 -0.116635 0 -0.259542 0.175641 
455 1 1 0 0 2.30867 10.3302 11.926 0.58772 -0.237248 0.141034 0 -0.158628 0.226628 
732 2 0 -1 1.95043 5.23751 11.1339 14.4712 0.421105 2.21334 0.122147 -1.30701 0.0040744 0.0169914 
11 1 1 0 0 0.65968 10.2489 10.647 0.117635 0.235982 0.219677 0 -0.0948694 0.0633148 
409 1 1 0 0 4.30841 13.8938 12.9565 -0.0456794 -0.0130339 -0.0588512 0 -0.458625 0.00307477 
798 2 0 1 2.15661 4.31624 12.0209 12.6114 3.83192 -3.97987 -4.60645 0.799636 -0.0318946 0.139246 
286 2 0 1 1.82476 4.67514 11.0551 9.6797 -3.17698 -1.57746 -6.83438 -2.87919 0.0327003 0.174671 
651 1 1 0 0 6.69978 11.0709 11.8782 0.0632432 -0.0238589 -0.217025 0 -0.343304 0.0277746 
89 1 1 0 0 4.22616 11.3071 12.8773 0.0294634 -0.211161 -0.0377377 0 -0.255495 0.0252011 
84 2 0 -1 1.79089 4.51438 13.8547 12.6196 4.52101 0.82123 3.19111 -0.211986 0.187718 0.0835415 
253 1 1 0 0 0.190139 11.9633 14.496 0.0944806 0.00873281 -0.233191 0 -0.336886 0.0340706 
721 1 1 0 0 5.13286 11.948 10.8371 -0.250657 0.356611 0.128065 0 -0.255428 0.110951 
825 1 1 0 0 0.816273 14.4664 13.3501 0.186991 0.146454 -0.0651451 0 -0.22663 0.0326071 
94 2 0 1 1.74344 3.14449 15.1219 13.9025 -1.23751 4.6012 -0.437407 2.97375 0.156939 0.0787295 
424 2 0 -1 2.21941 1.41476 12.8796 12.4898 -3.11571 -3.05794 4.9866 -0.533882 0.093433 0.117693 
814 2 0 1 2.67461 0.309922 11.2077 12.7286 -3.60764 4.82145 -4.47757 2.48493 -0.011958 0.162496 
108 2 0 -1 2.06702 6.11754 11.6451 11.4999 -3.54202 2.15992 -4.03832 -6.77315 0.0522708 0.18112 
376 2 0 -1 1.453 3.83228 14.3533 14.9926 -2.08093 -5.50194 2.74342 -2.46769 0.280772 0.124509 
852 2 0 -1 1.68845 0.228096 11.0019 15.0411 -5.36135 -2.25675 0.798462 -3.32201 0.11564 0.113994 
213 1 1 0 0 4.12683 12.5915 18.2887 0.286344 -0.0162066 0.163033 0 -0.438527 0.0585048 
414 2 0 1 1.8018 1.71243 11.5785 17.596 0.710488 -1.47322 1.58838 -0.687319 -0.0742808 0.0148051 
196 2 0 -1 1.53075 4.24724 14.8091 18.2283 -0.258975 8.89289 2.12017 -7.92979 0.202972 0.348787 
133 1 1 0 0 1.23624 14.0073 20.1089 -0.00792456 -0.0268549 0.178008 0 -0.248652 0.0174549 
703 1 1 0 0 1.53343 12.3536 16.7743 0.494996 0.0245156 0.12481 0 -0.393601 0.140408 
127 1 1 0 0 0.233811 11.0575 17.2269 0.165821 -0.166209 0.0943605 0 -0.145449 0.0344174 
43 1 1 0 0 4.0078 14.6518 15.4783 0.189458 -0.0130928 -0.374154 0 -0.524521 0.0946398 
747 1 1 0 0 2.69856 11.7408 18.6724 -0.119861 -0.239584 0.0122034 0 -0.265114 0.0386587 
680 2 0 -1 1.70712 1.54778 12.2867 16.8286 -3.77034 -2.14257 -3.13391 2.22247 0.102606 0.0862112 
431 1 1 0 0 4.94353 10.4145 20.0658 0.135837 -0.189191 0.139396 0 -0.231372 0.0396047 
329 1 1 0 0 2.37916 10.8879 17.6167 -0.126677 -0.273361 -0.150759 0 -0.211849 0.061013 
25 1 1 0 0 6.19399 11.0208 18.3943 -0.0251068 0.19639 0.047179 0 -0.359598 0.0222682 
1 1 1 0 0 5.82471 13.7785 15.2802 -0.153422 0.112995 0.178066 0 -0.474962 0.036561 
369 1 1 0 0 1.47178 10.3687 15.4395 -0.496412 -0.173101 0.145904 0 -0.179478 0.160017 
726 2 0 1 1.77099 4.12883 12.2744 18.159 4.28731 -2.85263 -3.29439 0.244775 0.0960431 0.0997684 
350 2 0 1 1.91046 2.71137 10.1467 19.5778 0.595053 -1.84142 -1.6104 -2.07671 -0.00349223 0.0255253 
587 1 1 0 0 4.30987 14.365 18.6487 0.0314557 -0.14623 -0.204485 0 -0.512644 0.0345037 
794 2 0 1 1.73668 5.04125 14.8806 18.5583 -0.390886 1.12401 2.05666 -3.7761 0.066876 0.04357 
610 2 0 1 1.7898 5.80917 13.8538 15.2757 1.52649 -1.90012 0.355685 3.32466 0.113595 0.0382823 
88 2 0 -1 1.71131 3.33432 11.7193 17.8454 -1.52088 0.0394349 -0.220177 -0.682808 0.101217 0.00723342 
8 2 0 -1 1.58263 3.13096 18.6177 2.57867 -1.36689 -2.71397 -1.62452 -1.92523 0.0173095 0.0390711 
597 1 1 0 0 3.48541 16.0178 3.59789 0.416662 0.0288379 -0.092693 0 -0.306368 0.0983886 
473 1 1 0 0 2.34541 18.0689 4.04919 0.118937 0.0214976 -0.409676 0 -0.200835 0.0980724 
430 2 0 1 1.6715 3.49002 15.9209 2.35943 -1.76003 -2.03642 2.07351 -1.38997 -0.0293547 0.0346453 
249 1 1 0 0 2.55326 19.2341 1.27409 -0.353392 -0.0993849 0.161064 0 -0.198458 0.0863872 
485 1 1 0 0 3.59694 17.2515 1.71955 0.110593 -0.0478901 0.557088 0 -0.236416 0.174635 
469 1 1 0 0 5.21757 17.2304 2.27919 -0.29184 0.0984715 -0.282158 0 -0.344395 0.0937923 
158 2 0 1 1.99838 6.0955 17.1572 2.46673 2.32159 -1.8725 1.52534 -4.48962 0.0338193 0.0702344 
419 1 1 0 0 4.63892 18.7844 2.7949 0.4888 0.213799 -0.325636 0 -0.242148 0.210008 
737 1 1 0 0 4.6459 19.5441 4.99126 -0.0230697 0.172609 0.356233 0 -0.466269 0.0845183 
442 2 0 1 1.85471 2.13526 18.107 -0.0200181 0.0345669 1.33494 -1.52373 -1.91609 -0.0532209 0.0182879 
740 2 0 -1 1.69088 5.13423 17.15 1.49821 1.08972 4.51882 -0.435657 1.82731 0.0776354 0.0647977 
106 2 0 1 2.24769 4.51074 19.608 4.09519 -1.39498 -2.60537 0.313626 0.852622 -0.0276456 0.0250045 
542 2 0 1 1.90658 1.45686 19.5937 3.74418 -4.2152 0.716178 -1.51241 3.69992 -0.132753 0.0822202 
288 2 0 -1 1.87014 3.10061 15.8815 3.49329 2.73715 1.74578 1.62579 -0.641726 -0.0258135 0.0359749 
112 2 0 -1 2.00333 0.446612 16.8965 3.30432 -1.69284 2.05863 -3.73426 -2.36515 0.0630536 0.0673108 
418 2 0 1 4010.57 0.217549 19.1029 -0.102367 0.712669 0.440618 -1.18781 2.56106 -0.000219131 0.0187509 
648 2 0 -1 1.41726 4.29098 19.8024 4.66389 4.45516 -1.11752 3.04577 6.77908 0.149466 0.172894 
311 1 1 0 0 2.18309 19.9909 3.36297 -0.00250084 -0.4823 0.227156 0 -0.189607 0.152783 
634 2 0 1 1.64187 2.34694 17.9955 8.72199 -1.77678 -1.36984 3.73384 2.30405 0.142789 0.0612118 
536 2 0 -1 2.15523 0.756733 16.8658 8.01302 0.0388336 -1.07336 -3.28215 0.865586 -0.0240013 0.0332984 
671 1 1 0 0 6.48413 19.3723 6.74777 -0.125397 0.129055 0.372267 0 -0.482884 0.0919012 
375 1 1 0 0 1.73684 16.0009 9.46528 0.220136 0.0264033 0.0497578 0 -0.281829 0.0277554 
641 1 1 0 0 0.784819 15.7698 7.03852 -0.349763 0.283049 0.0345792 0 -0.22306 0.109471 
522 2 0 1 1.53482 5.92831 19.1769 7.24598 -5.42419 -0.1895 5.53653 4.67271 0.135504 0.203946 
781 1 1 0 0 3.46146 16.4514 6.64975 -0.012082 -0.102691 -0.259959 0 -0.335734 0.0420744 
783 1 1 0 0 2.49589 17.6239 5.56502 0.315663 0.18308 -0.050328 0 -0.274209 0.0729428 
481 1 1 0 0 2.17167 18.2011 8.48371 -0.308444 -0.0326585 0.168473 0 -0.412049 0.0669721 
555 1 1 0 0 1.4795 19.5552 5.79267 0.212622 -0.296991 -0.434431 0 -0.241763 0.173169 
766 2 0 1 2.0624 5.82617 18.318 10.0891 3.07013 0.526455 1.11484 2.04591 0.159263 0.0375567 
264 2 0 -1 1.60588 6.06058 18.6367 7.29607 -2.76136 0.525588 -0.314778 1.10276 0.0718782 0.0237645 
53 1 1 0 0 5.45495 18.4497 7.3417 0.202745 0.013386 -0.0841548 0 -0.493391 0.0259997 
126 2 0 1 1.66782 3.33203 15.2853 7.0873 2.76311 -2.88732 1.88428 4.58302 0.097359 0.0940584 
840 2 0 -1 2.50511 4.55156 15.1652 5.60933 4.10133 -0.685686 0.469729 -5.28314 0.0956635 0.102512 
678 2 0 1 1.91966 3.11257 17.2856 5.88135 0.711415 -1.28091 1.49788 -0.746377 0.00184051 0.012821 
124 2 0 -1 1.47362 1.75416 18.3874 5.41264 -1.53622 -1.23511 -1.06593 -1.42874 0.0527047 0.0174722 
258 2 0 1 2.32624 0.912531 16.2406 8.20031 2.92131 -3.6467 -0.407085 -4.06803 0.0580041 0.0917515 
744 2 0 -1 2.56183 1.39669 18.8227 11.3224 0.779579 -0.458095 -2.63347 0.183244 -0.128314 0.0207394 
95 1 1 0 0 4.75894 17.058 10.7427 0.0973235 0.159297 0.0657042 0 -0.358451 0.0210529 
393 1 1 0 0 3.72578 18.6346 10.6219 0.0476393 -0.0318339 0.217303 0 -0.216478 0.0271482 
701 1 1 0 0 4.37058 16.9534 13.8555 -0.323526 -0.133962 0.287998 0 -0.249866 0.110498 
371 1 1 0 0 3.48983 15.0678 13.8725 -0.103435 -0.46449 -0.0557978 0 -0.474989 0.123402 
693 1 1 0 0 4.17073 18.8133 14.4467 -0.298521 0.132684 -0.0431053 0 -0.186741 0.0583662 
119 1 1 0 0 6.52145 16.3095 11.9618 -0.0545054 -0.0574231 -0.029758 0 -0.214068 0.00384554 
622 2 0 1 1.80866 4.28612 19.8006 14.2342 2.63499 -1.00981 0.587016 3.13686 -0.0541954 0.0418293 
180 2 0 -1 1.7813 4.42298 16.4961 10.3114 1.86183 2.3423 3.30221 9.10124 0.0693159 0.218599 
465 1 1 0 0 0.858671 18.0048 11.8881 0.0325741 0.102502 0.0962749 0 -0.204435 0.0112007 
122 2 0 1 1.7164 1.86685 18.6613 12.1696 -2.55065 -4.81077 -1.32842 -1.34514 -0.09838 0.0873818 
554 2 0 1 2.0909 4.42593 17.0056 13.6107 -1.20411 -0.684646 -3.18302 3.14973 0.0519969 0.051971 
799 1 1 0 0 1.65103 19.3413 12.8853 -0.143731 -0.110556 0.130896 0 -0.171745 0.0268857 
105 1 1 0 0 5.77888 17.9888 13.9932 -0.264393 0.0583745 0.154599 0 -0.274739 0.0522565 
160 2 0 -1 1.97688 1.73035 15.747 13.4304 -2.61953 3.48487 6.44573 -5.7511 0.077948 0.227607 
312 2 0 -1 2.23051 5.35644 19.0184 13.298 0.458122 1.0999 1.53886 -3.89095 -0.101446 0.0403761 
192 2 0 -1 2.3001 6.3511 16.163 14.4183 0.0722059 3.00088 0.0790404 1.34137 0.0244786 0.0276407 
654 2 0 1 1.65772 6.33643 15.5482 10.9275 -0.578699 1.10866 -4.76614 1.92664 -0.00910639 0.0721644 
585 1 1 0 0 4.62122 20.0815 13.3314 0.325304 -0.146002 -0.126515 0 -0.277767 0.0769483 
378 2 0 1 2.42995 2.54484 15.2365 10.3724 -1.33697 -4.0696 3.94226 -0.569486 -0.000298864 0.0910153 
67 1 1 0 0 5.01843 19.8881 18.1494 -0.0697273 0.105844 -0.0273483 0 -0.451632 0.00903773 
472 2 0 -1 2.15215 1.33212 18.4523 20.123 -3.58511 -1.52011 5.9852 -1.51657 -0.0469704 0.140551 
813 1 1 0 0 3.28307 18.1679 16.9397 -0.0272538 0.0742483 0.0106053 0 -0.269562 0.00342316 
427 1 1 0 0 0.31932 15.4789 16.7276 0.10039 0.505894 -0.28437 0 -0.26161 0.186463 
319 1 1 0 0 1.757 18.1536 19.9553 -0.086723 -0.217044 -0.148183 0 -0.374885 0.0411696 
727 1 1 0 0 1.60025 15.6725 17.2968 0.20201 0.119384 -0.332507 0 -0.460575 0.0890304 
215 1 1 0 0 6.11452 18.5684 19.9951 -0.349517 -0.0427193 -0.0790952 0 -0.292478 0.0700127 
125 1 1 0 0 0.577537 19.9324 19.1045 0.194969 0.115888 0.271225 0 -0.260155 0.0671975 
365 1 1 0 0 5.30575 15.6305 18.7651 -0.11928 0.0838816 -0.130528 0 -0.42985 0.0205889 
493 1 1 0 0 5.69096 16.2784 17.1137 -0.302847 0.113251 0.00520481 0 -0.269637 0.0562114 
292 2 0 -1 1.87778 6.11428 16.5647 18.4833 1.08721 -2.27441 -2.39468 0.258709 0.0326844 0.0323695 
90 2 0 1 1.57328 5.19488 20.1416 17.7607 1.47977 1.32592 -0.405524 3.36407 0.190036 0.0335969 
220 2 0 -1 2.2083 2.7953 17.8193 16.5418 3.73239 -0.373129 4.46963 -3.46319 0.00690259 0.114771 
324 2 0 -1 1.60721 1.333 15.5056 16.7925 -2.43256 2.14215 -1.06874 -1.5792 0.0839906 0.0360468 
382 2 0 1 1.45869 0.188189 19.7432 19.7003 -3.16387 -4.56727 1.26808 -2.3267 0.172997 0.0974267 
242 2 0 1 1.89018 2.30053 15.4952 17.0735 2.82511 5.90492 5.1389 -0.501858 0.101503 0.185174 
438 2 0 1 1.49356 11.0072 1.96914 4.74717 -0.768787 0.975899 0.354999 2.5264 -0.0214325 0.0172157 
214 2 0 1 2.6283 13.1056 2.38905 1.09835 1.90267 3.17563 -2.72973 7.19515 0.00100917 0.159943 
789 1 1 0 0 11.7411 1.90204 4.71026 0.224693 -0.205427 -0.0351012 0 -0.346299 0.0504867 
607 1 1 0 0 10.6291 0.98108 1.55427 -0.195105 -0.0587652 -0.297008 0 -0.415898 0.0697384 
379 1 1 0 0 12.4868 2.97074 0.486088 0.305356 0.112102 -0.00828778 0 -0.332255 0.0569149 
677 1 1 0 0 8.14136 3.75735 3.74031 -0.157141 -0.0042098 0.201993 0 -0.385096 0.0352162 
347 1 1 0 0 10.3867 1.01145 4.28407 0.161151 -0.392649 0.0890905 0 -0.286071 0.101103 
722 2 0 1 1.81694 8.05688 3.67266 2.41832 -2.29945 2.28139 -5.66138 -2.47926 -0.014175 0.125731 
784 2 0 -1 1.80273 10.1777 1.2761 1.42589 -0.0901132 -0.716377 -4.55204 3.84615 0.142714 0.0862245 
97 1 1 0 0 8.13313 3.13943 2.09265 0.199107 -0.304551 0.0409238 0 -0.42603 0.0720692 
538 2 0 1 2.44488 12.1243 3.4795 1.18053 0.338681 0.800675 0.4687 5.14749 0.0435039 0.0555896 
663 1 1 0 0 8.97281 0.872822 1.78642 0.0723297 0.32255 0.145162 0 -0.43921 0.0700655 
612 2 0 -1 2.16962 7.40624 3.10059 2.38771 -0.463097 1.35302 -3.45515 1.8929 0.173501 0.0444506 
403 1 1 0 0 7.43878 0.260008 0.0896962 -0.269009 0.0679794 0.136694 0 -0.403092 0.051429 
166 2 0 1 1.58068 9.46137 0.896165 2.83833 -7.10378 -1.26115 1.22883 1.10502 0.2029 0.145267 
338 2 0 1 2.01427 12.6428 4.89455 4.67073 -2.28577 8.30074 0.174353 -0.700901 0.00699776 0.198718 
340 2 0 -1 2.35741 7.73492 4.33026 3.8398 -2.68261 1.92664 6.30837 4.01412 0.210581 0.167422 
860 2 0 -1 2.57551 11.34 3.80717 0.876069 0.463657 -0.0247098 4.78062 -1.75493 0.0680316 0.0676734 
445 1 1 0 0 9.14922 2.7948 9.48418 -0.237086 -0.070999 -0.11467 0 -0.419877 0.0399938 
40 2 0 -1 1.40042 11.3028 1.73177 4.71816 1.97384 -2.97135 -5.76474 -2.19678 -0.0208873 0.132193 
496 2 0 -1 1.6572 10.7358 2.29241 8.92371 0.971185 -2.30325 0.722734 -1.07051 0.239055 0.0203449 
205 1 1 0 0 10.6351 1.96522 9.19366 0.165433 -0.0923623 0.0346094 0 -0.410721 0.0199414 
261 1 1 0 0 8.18392 2.7284 8.68357 -0.135866 -0.334257 -0.17447 0 -0.42768 0.0863456 
387 1 1 0 0 12.1195 0.818123 7.28107 0.181802 -0.0686365 -0.0245374 0 -0.19775 0.0206233 
169 1 1 0 0 8.73937 3.32661 5.54187 0.0432394 0.201774 -0.133473 0 -0.49826 0.0324669 
605 1 1 0 0 13.0301 1.7089 8.83956 0.290769 0.187057 0.417849 0 -0.209389 0.158113 
61 1 1 0 0 9.20391 1.19097 5.91097 -0.0614654 -0.306434 -0.43763 0 -0.517231 0.15546 
535 1 1 0 0 7.2762 0.773871 9.08103 0.267285 0.134811 0.0146998 0 -0.452691 0.048289 
637 1 1 0 0 11.1274 4.68276 7.27364 -0.0308863 0.167168 0.136826 0 -0.313958 0.0255984 
661 1 1 0 0 7.80004 3.02657 9.84118 -0.0678238 0.194427 -0.0524274 0 -0.398684 0.0242708 
348 2 0 -1 1.87964 8.2762 3.35553 8.367 -2.63162 -1.29435 1.40815 2.16682 0.194952 0.03761 
62 2 0 1 1.92519 8.33567 1.27778 6.68156 -0.731894 -3.28852 0.671582 -5.73021 0.167563 0.0971316 
837 1 1 0 0 10.7006 1.99859 5.0823 -0.04561 -0.504899 -0.112094 0 -0.333206 0.144907 
471 1 1 0 0 12.4963 4.65598 5.15138 -0.253404 0.439037 -0.221542 0 -0.29088 0.164517 
520 2 0 -1 1.49391 9.26754 1.38774 5.86648 0.815464 0.528807 5.72585 1.93113 0.153208 0.0973966 
590 2 0 1 1.20002 8.58586 3.08068 9.25299 -1.31537 -4.05541 1.38993 7.00877 0.295933 0.151855 
294 2 0 1 1.96292 13.2461 2.24318 7.14078 2.91762 -1.32271 -2.47065 2.35421 -0.0724348 0.0547229 
284 2 0 -1 2.27852 11.5967 4.0885 8.35109 -4.86362 1.92927 1.86213 -1.93404 0.196023 0.0897249 
310 2 0 1 1.67076 6.60087 1.40708 9.24209 -5.60858 4.40313 -1.56871 5.12861 0.244504 0.194734 
22 2 0 1 1.46302 9.0713 3.61874 5.46199 -2.09566 -1.30124 -7.571 6.58676 0.219169 0.255828 
241 1 1 0 0 11.6545 2.66796 13.9332 -0.084001 0.0567635 -0.253357 0 -0.472326 0.0400304 