ITEM: TIMESTEP
13000
ITEM: NUMBER OF ATOMS
864
ITEM: BOX BOUNDS pp pp pp
0.0000000000000000e+00 2.0107868000000000e+01
0.0000000000000000e+00 2.0107868000000000e+01
0.0000000000000000e+00 2.0107868000000000e+01
ITEM: ATOMS id type q c_1a[1] c_1a[2] x y z vx vy vz c_1a[3] 
600 2 0 -1 1.92373 8.30867 6.92604 1.35705 -0.313798 -4.99975 -0.674244 -1.58043 
302 2 0 1 2.15399 3.66367 2.83078 0.192524 -0.463864 7.29679 0.254128 -2.20164 
1 1 1 0 0 15.1054 4.40701 1.67919 0.352793 0.262535 -0.150419 0 
657 1 1 0 0 0.595439 0.265357 1.79891 -0.138401 0.146157 0.309649 0 
512 2 0 -1 1.60772 18.6973 1.59519 0.0515701 -0.999008 -4.45462 -1.47892 1.50214 
840 2 0 -1 2.66885 2.97444 2.16929 4.34034 1.81082 -1.57434 -0.750463 -1.89057 
255 1 1 0 0 13.7757 1.29089 5.28349 0.306864 0.589417 -0.282733 0 
494 2 0 1 3.63361 5.05511 9.71137 1.11532 -0.031251 -1.25776 -3.33314 -1.11854 
313 1 1 0 0 10.6513 1.24831 2.98921 0.146048 -0.228057 -0.0183978 0 
459 1 1 0 0 9.8312 7.1827 2.12733 0.0496753 -0.0915436 0.184365 0 
486 2 0 1 2.08487 2.69898 7.86551 0.811876 -0.0500525 1.76316 1.47088 0.460158 
240 2 0 -1 1.66218 12.305 8.16831 2.2111 -1.93213 2.35545 -0.145763 1.60877 
51 1 1 0 0 2.11212 4.1432 6.22631 0.0707597 -0.211744 0.329594 0 
628 2 0 -1 2.76965 14.3264 8.36886 5.54986 -1.57721 -3.33869 3.08323 -2.80964 
810 2 0 1 1.82076 11.1777 7.1063 2.43155 -0.58272 1.10315 -0.0863086 -4.63004 
789 1 1 0 0 20.0054 5.43228 3.16201 0.191926 0.244835 -0.0354016 0 
837 1 1 0 0 5.45364 6.27327 2.28471 -0.169101 -0.0846776 0.573388 0 
359 1 1 0 0 12.4506 6.82377 0.797502 0.252662 -0.145403 0.0361497 0 
72 2 0 -1 1.83974 16.0625 9.29245 1.44797 1.25218 -0.459272 -1.10355 -0.181704 
641 1 1 0 0 5.98331 5.05276 5.00008 -0.116323 -0.168833 0.0338043 0 
82 2 0 1 2.1946 17.8542 5.28024 4.18032 -2.36178 1.6432 1.16669 2.22109 
485 1 1 0 0 15.2916 9.9271 2.077 -0.107132 0.170401 0.22891 0 
293 1 1 0 0 8.1562 2.73859 6.11343 -0.0574288 0.0126154 0.125804 0 
430 2 0 1 2.38018 4.38143 6.06601 3.31858 0.487195 3.67807 -2.06088 0.541206 
696 2 0 -1 2.81159 14.7042 8.05049 6.01415 -0.863904 -0.0981402 -1.48233 -0.120106 
398 2 0 1 1.75813 11.5177 2.13319 3.54249 1.67088 -2.18773 0.228511 -4.19763 
285 1 1 0 0 11.0172 7.7393 0.412337 -0.535372 0.331865 0.217713 0 
188 2 0 -1 1.80244 0.244645 0.205049 0.988798 2.42998 5.7155 -0.156492 -2.10593 
163 1 1 0 0 9.09393 7.16453 6.48618 -0.432516 -0.116445 -0.101367 0 
500 2 0 -1 2.50931 5.45227 5.61626 2.37876 -0.181661 -4.05044 2.67598 3.62684 
45 1 1 0 0 4.24173 7.05743 4.89185 0.325138 -0.220786 -0.170291 0 
227 1 1 0 0 14.6902 8.03007 5.80427 0.200748 0.0563237 0.215343 0 
457 1 1 0 0 15.1101 1.89847 0.341518 0.243765 0.223145 0.0703408 0 
421 1 1 0 0 2.69536 9.48048 3.05777 -0.261444 -0.0877482 -0.285315 0 
728 2 0 -1 2.67242 19.2979 5.18973 1.50591 0.23436 0.965408 0.0556512 -1.01752 
150 2 0 1 1.75201 9.45782 0.114006 6.69998 -2.54434 -3.63549 1.6945 3.90488 
721 1 1 0 0 3.70887 1.91073 4.31626 -0.0260556 0.404415 -0.105919 0 
569 1 1 0 0 11.2809 0.191195 6.67978 -0.101645 0.231656 -0.0887379 0 
469 1 1 0 0 7.30798 9.52693 2.3355 -0.292814 -0.267899 -0.120147 0 
749 1 1 0 0 13.8512 6.10869 4.6286 0.0281772 -0.0577617 0.231766 0 
862 2 0 1 1.95587 4.1264 0.402711 5.91622 -2.54959 0.0448861 2.79414 4.37692 
792 2 0 -1 3.11959 17.935 8.50889 4.58722 -2.84838 -3.98969 2.18473 -1.75218 
190 2 0 1 1.83771 13.608 7.42605 4.62699 -1.97679 -1.61887 1.02697 -3.18739 
626 2 0 1 1.88303 9.85891 1.69873 1.60368 3.93659 1.44032 2.33346 -4.89819 
81 1 1 0 0 12.152 6.86781 5.44323 -0.260618 -0.0552027 -0.109169 0 
747 1 1 0 0 7.80966 3.44004 3.64407 0.134216 0.212119 -0.053988 0 
490 2 0 1 1.63078 7.50853 1.78001 1.0934 -2.77734 -3.32449 3.59894 3.96584 
193 1 1 0 0 1.56272 6.27531 5.55775 0.476842 0.0457348 0.1682 0 
572 2 0 -1 2.1525 15.8631 1.35102 4.41497 -1.62026 -2.00002 2.59639 1.89882 
540 2 0 -1 2.01993 2.75068 6.34422 2.46167 0.87953 -2.88015 1.78021 -0.578538 
530 2 0 1 2.09825 9.28214 4.70279 2.75944 -0.328924 -4.03702 -3.07073 0.660103 
254 2 0 1 2.36162 17.3551 0.796823 4.79962 2.87483 -2.38313 -2.11983 0.177259 
277 1 1 0 0 9.06192 1.10007 5.95546 0.0225246 0.228415 -0.00672493 0 
602 2 0 1 1.85815 1.11271 9.72515 4.52632 0.342735 -0.0663043 -0.208346 -0.11605 
675 1 1 0 0 17.785 1.42604 0.927501 0.254041 0.40764 0.184842 0 
131 1 1 0 0 18.5997 8.28103 0.166386 0.252319 -0.0307881 0.00761849 0 
808 2 0 -1 2.3611 2.38415 3.10594 0.383821 3.05305 -1.25524 -1.22585 -1.86033 
710 2 0 1 1.38127 13.8267 1.34383 5.47138 -5.07543 1.08487 3.19135 -1.30895 
34 2 0 1 1.69651 14.6056 1.94936 2.58557 -2.43647 0.172964 0.935428 1.59219 
144 2 0 -1 1.80391 2.338 9.37325 4.12833 -1.30736 0.360727 0.182838 -0.222454 
339 1 1 0 0 10.6283 1.3447 4.80473 -0.0693733 -0.242473 0.411905 0 
603 1 1 0 0 11.4481 7.94244 2.71931 -0.0344756 -0.389083 -0.0861227 0 
4 2 0 -1 2.40649 15.2637 2.93074 0.183887 2.20975 -0.604883 -0.964524 -0.96781 
627 1 1 0 0 19.8211 3.74125 1.23269 0.197327 0.0416387 -0.0695182 0 
363 1 1 0 0 19.1696 7.80267 4.86228 0.201277 -0.275085 -0.253803 0 
101 1 1 0 0 3.16822 6.32299 2.14912 -0.102851 -0.286221 0.206905 0 
49 1 1 0 0 1.66088 4.19762 1.74149 -0.250241 0.0131237 0.261153 0 
474 2 0 1 1.91891 8.11241 9.7441 2.48943 -1.35725 0.151342 -2.86566 3.57782 
508 2 0 -1 1.84984 18.0332 3.1089 6.64163 -1.35874 -5.96079 3.18193 -0.371152 
441 1 1 0 0 0.436258 2.30094 4.89375 -0.404537 0.0568731 -0.137866 0 
379 1 1 0 0 7.58388 8.05129 1.85957 -0.191074 0.169223 -0.0935384 0 
608 2 0 -1 1.73811 8.1303 1.14828 6.37491 -4.20403 1.15401 -1.80474 -0.142319 
670 2 0 1 1.37476 15.3021 5.03269 2.59254 -4.06332 -4.48282 -0.404169 -2.11957 
108 2 0 -1 1.95393 14.5889 4.16445 6.64653 -1.64854 -2.43204 0.732391 0.826257 
355 1 1 0 0 10.8537 4.41904 1.5311 0.264252 0.132641 0.370181 0 
616 2 0 -1 1.88423 7.24259 1.21679 3.18081 2.86106 1.08442 2.98057 2.23582 
153 1 1 0 0 18.023 4.50525 3.9876 -0.0125972 0.151563 0.158417 0 
773 1 1 0 0 19.5426 0.524818 0.830611 0.175019 -0.0452944 0.0154683 0 
605 1 1 0 0 11.9967 0.947237 0.748736 0.319349 -0.19679 0.229465 0 
463 1 1 0 0 10.9934 3.94538 5.6762 -0.10488 0.362028 -0.179973 0 
9 1 1 0 0 0.558167 0.0777079 4.44636 0.00253153 0.0490539 0.245855 0 
633 1 1 0 0 14.2466 3.60851 5.16017 0.358003 -0.105241 0.138695 0 
755 1 1 0 0 16.1781 5.42771 3.60056 -0.254517 -0.222942 0.0223649 0 
233 1 1 0 0 1.94045 7.24393 1.93637 0.383569 -0.06009 -0.016938 0 
483 1 1 0 0 9.6157 2.63419 1.56354 0.340211 -0.110059 0.0669989 0 
727 1 1 0 0 18.2456 1.4731 2.47998 0.00170559 -0.12565 0.0524314 0 
611 1 1 0 0 7.55118 0.108495 3.44756 -0.199107 -0.0546396 -0.125782 0 
343 1 1 0 0 10.5657 7.20233 4.89994 0.20994 -0.0915091 0.233136 0 
845 1 1 0 0 15.7415 5.3678 2.51112 -0.161368 -0.159255 0.0519596 0 
388 2 0 -1 1.41819 16.4038 5.54809 2.80973 0.519244 -0.612436 1.06287 -5.09989 
751 1 1 0 0 4.94196 8.68673 0.343066 0.16355 -0.0608811 -0.268082 0 
401 1 1 0 0 4.35831 2.14802 0.848421 0.0809279 -0.31434 0.499272 0 
637 1 1 0 0 19.4868 0.960933 6.01375 0.711939 0.118907 0.143218 0 
286 2 0 1 1.81583 4.89001 2.79447 4.60448 2.81479 -0.567424 -0.498411 -2.55276 
513 1 1 0 0 3.60774 3.83395 4.69274 0.0192631 0.133608 0.136691 0 
644 2 0 -1 2.6583 1.02736 7.31764 5.36466 0.832862 1.34442 -2.81947 -0.102209 
579 1 1 0 0 16.9527 0.419732 4.59284 -0.0559485 -0.13238 0.432229 0 
5 1 1 0 0 13.1452 0.654182 4.05685 -0.207941 0.257687 0.0705593 0 
601 1 1 0 0 8.29229 1.71696 1.66809 -0.0066695 -0.272121 -0.000917287 0 
634 2 0 1 2.23787 16.814 3.53294 6.02548 -2.50769 -3.3961 0.693734 1.87637 
330 2 0 1 2.26355 17.4906 8.31941 4.41053 1.43055 0.821664 2.14929 2.9269 
42 2 0 1 1.98516 1.81142 5.57441 4.95636 1.99743 4.92988 -1.80241 -1.92337 
519 1 1 0 0 16.7354 9.61286 1.7138 -0.221849 0.275901 0.283502 0 
624 2 0 -1 1.92223 0.526845 8.422 0.951611 -1.31602 3.38362 -2.74914 -3.00483 
607 1 1 0 0 16.9566 2.3695 4.40461 0.0388639 0.121923 -0.216833 0 
669 1 1 0 0 12.1903 2.09496 2.93085 0.0480752 0.159386 0.236729 0 
7 1 1 0 0 1.57047 9.85313 4.35047 0.199573 0.115482 -0.228311 0 
361 1 1 0 0 12.7998 8.10913 4.00197 0.308148 0.183439 -0.0100747 0 
48 2 0 -1 2.27043 10.934 0.788331 5.12012 -1.21002 -0.259147 0.513486 2.00179 
531 1 1 0 0 14.4846 0.775797 2.4564 -0.428292 -0.088533 0.267795 0 
116 2 0 -1 1.86304 13.594 5.74577 3.4061 -0.0849074 0.573706 0.577483 1.95096 
688 2 0 -1 2.41935 6.03729 8.04343 5.26394 1.92372 -0.0147628 -4.43353 -0.183183 
631 1 1 0 0 8.73884 4.64593 4.26381 -0.138733 -0.156905 0.21849 0 
706 2 0 1 1.82642 15.6394 9.9601 1.57307 -1.22364 -3.65979 1.96791 -2.71767 
617 1 1 0 0 6.57285 9.05315 5.0631 -0.196366 -0.316934 -0.144277 0 
194 2 0 1 2.35508 11.9233 4.86386 0.586586 -0.181592 0.270821 -0.617379 4.24276 
589 1 1 0 0 12.4458 9.6385 1.61884 -0.614062 -0.232072 -0.143167 0 
55 1 1 0 0 16.7218 8.05316 3.93638 0.0305903 -0.0782906 0.112318 0 
672 2 0 -1 2.06576 4.25251 4.12279 4.37477 -0.354228 -0.681571 2.73813 0.619899 
100 2 0 -1 1.52398 0.343897 2.49765 4.68572 1.69927 -0.76796 2.52471 2.13458 
135 1 1 0 0 5.85369 2.4075 4.41874 -0.00890068 0.262756 -0.363115 0 
413 1 1 0 0 7.23754 1.31242 0.833972 -0.210751 0.295929 -0.224983 0 
74 2 0 1 3.07369 18.2787 5.84382 4.99276 -2.11291 1.54376 -2.64405 -2.10965 
36 2 0 -1 1.37503 11.3122 7.16506 4.85941 2.57347 -1.65847 -5.84547 -1.03716 
133 1 1 0 0 4.83492 9.88715 0.179994 -0.0420156 0.0169018 0.119828 0 
856 2 0 -1 1.4022 10.8635 4.72714 0.393385 -2.53475 -1.3877 -1.86403 2.04973 
127 1 1 0 0 3.25426 9.68208 1.26052 0.0807288 -0.167869 -0.0687784 0 
722 2 0 1 1.5602 14.1452 4.5412 5.65057 -0.398642 -0.494289 -2.01877 4.46662 
682 2 0 1 1.99278 8.06689 6.41218 6.35879 -3.04986 1.6335 6.29318 -1.89314 
570 2 0 1 2.06611 8.28724 3.4445 5.09447 -1.98553 1.04906 0.710168 0.489135 
652 2 0 -1 1.88492 4.5747 1.94432 1.26443 0.281185 6.67834 2.78071 2.62321 
191 1 1 0 0 16.1127 5.04891 6.27219 0.146314 -0.103471 -0.197418 0 
316 2 0 -1 1.83099 3.41055 9.72874 6.71582 -1.64018 0.00819366 5.04718 -2.67794 
400 2 0 -1 2.1289 8.06754 4.23654 4.1275 1.88095 -1.17596 1.4467 -0.337637 
479 1 1 0 0 14.0185 1.84354 1.01649 0.0226962 0.256024 0.552659 0 
448 2 0 -1 1.54596 8.84272 2.11637 1.51049 -2.57704 2.63981 -5.9486 1.75892 
740 2 0 -1 1.50154 10.9057 1.93375 2.95438 -2.22772 0.0508873 -2.86987 3.46212 
518 2 0 1 1.84196 0.977887 0.665066 0.797738 0.989208 3.41255 2.90722 0.69881 
165 1 1 0 0 16.9025 0.141215 2.79423 -0.188084 0.00801471 0.0270984 0 
752 2 0 -1 1.78129 11.826 3.72998 5.99119 -2.53161 -3.12196 2.41652 2.55468 
222 2 0 1 1.52609 11.141 3.46469 5.8052 2.48302 0.625612 -2.44708 3.07167 
692 2 0 -1 1.56803 5.17177 8.92206 0.737529 0.884548 0.070006 1.752 -1.32109 
700 2 0 -1 1.90492 12.7757 2.29413 1.56553 -2.59705 -5.02288 4.35965 -2.65954 
111 1 1 0 0 20.1012 8.45245 0.791544 0.262659 -0.504004 0.691664 0 
322 2 0 1 1.68066 18.4907 2.14875 1.7193 1.92045 -3.28003 -1.27422 2.5243 
742 2 0 1 1.69496 1.67359 5.11594 1.64848 -3.01567 -3.02538 2.88038 1.68863 
656 2 0 -1 2.43701 4.77715 2.04475 6.15198 -0.809299 -4.14099 0.115844 -3.85063 
654 2 0 1 1.92642 0.224615 0.992051 5.47519 -0.626364 5.88388 -2.91759 0.743075 
719 1 1 0 0 1.64272 0.89747 0.278379 0.0507184 0.260208 0.414796 0 
250 2 0 1 1.87269 11.8449 9.6071 2.34346 0.427668 4.23976 0.736806 -3.12434 
442 2 0 1 1.74551 7.14859 8.92619 2.636 5.06224 0.0359541 2.57833 -0.934859 
192 2 0 -1 1.97771 17.8223 1.13706 3.05176 4.19163 0.247398 -3.39541 1.73693 
348 2 0 -1 1.69681 0.603721 0.251315 1.97068 1.68535 2.44105 0.296992 4.70585 
376 2 0 -1 1.73634 5.82809 2.71711 6.53515 -0.221223 0.565652 -0.737346 2.63158 
408 2 0 -1 2.70644 18.576 9.12345 0.272306 -1.40049 1.87784 2.72863 0.174198 
92 2 0 -1 2.75909 7.53478 5.22382 0.101985 -0.524969 3.03031 5.94415 1.85691 
347 1 1 0 0 4.64278 5.16929 10.8924 -0.143736 -0.174749 -0.0263495 0 
303 1 1 0 0 13.5832 2.11943 10.2821 0.286652 0.00528802 0.146951 0 
489 1 1 0 0 9.35036 3.18782 8.71056 0.229085 -0.084357 0.154236 0 
195 1 1 0 0 9.53296 0.90774 12.2421 0.453246 0.114643 0.0977611 0 
687 1 1 0 0 15.7012 1.27283 9.58965 -0.0580613 0.264501 -0.130007 0 
834 2 0 1 1.61439 17.1828 7.81158 9.16515 0.355385 2.22401 -0.0373982 0.5445 
320 2 0 -1 1.46468 1.19164 3.67805 9.59246 1.85372 -5.72042 0.470317 -4.94226 
820 2 0 -1 1.53111 15.1365 1.14289 9.67884 -1.48062 -0.483028 -0.530832 -2.11278 
497 1 1 0 0 0.178569 1.16002 10.7363 -0.294232 0.0845271 -0.460716 0 
335 1 1 0 0 11.1686 5.11562 10.0632 0.1171 -0.0751059 -0.411333 0 
733 1 1 0 0 17.4972 0.394633 7.7198 0.0267485 0.185726 0.0352251 0 
242 2 0 1 1.46711 0.128426 4.5147 10.1862 2.81656 -1.84408 -0.138937 5.15691 
452 2 0 -1 1.37305 1.2525 1.0399 7.67943 2.46426 0.89099 -1.57308 1.29315 
432 2 0 -1 2.793 16.3577 4.37803 10.1539 -2.73594 2.75782 3.2335 -0.837632 
199 1 1 0 0 2.08463 8.91531 11.1621 -0.323156 -0.12737 0.155858 0 
52 2 0 -1 1.46971 9.9069 5.64988 10.2052 -1.3484 2.82607 0.287113 -0.405027 
828 2 0 -1 1.90228 3.17316 6.92741 12.8737 -0.629251 0.881032 -1.51433 1.51331 
317 1 1 0 0 9.62706 4.89511 13.2587 0.0730025 0.167053 0.0143976 0 
65 1 1 0 0 14.416 4.61912 11.5983 0.0383764 -0.427553 0.0538817 0 
40 2 0 -1 1.69682 12.4728 9.26735 11.2504 1.10587 1.42456 0.260157 -1.50068 
297 1 1 0 0 6.54679 0.0277611 9.82641 -0.0308064 0.218107 0.222217 0 
405 1 1 0 0 7.49928 6.24816 7.12327 0.037037 -0.188838 -0.0554613 0 
553 1 1 0 0 9.00448 3.76755 11.3912 -0.119441 0.359521 -0.254052 0 
514 2 0 1 1.65641 8.81003 9.37438 10.2577 -1.66198 2.36726 1.15716 2.60708 
835 1 1 0 0 16.9432 8.62854 13.1592 -0.266601 0.255688 -0.0035807 0 
89 1 1 0 0 0.128344 4.52692 13.0257 -0.241333 0.0763284 0.0621342 0 
13 1 1 0 0 13.4061 0.0033312 12.0677 -0.124659 -0.262795 -0.10598 0 
546 2 0 1 1.54287 5.83055 2.5181 9.70604 2.09232 4.15368 -3.79437 -2.22051 
495 1 1 0 0 7.81942 7.4293 13.36 -0.319893 -0.155497 -0.00950871 0 
378 2 0 1 1.60669 4.72108 2.0029 7.69726 1.9916 -0.507226 -1.90658 -2.18223 
181 1 1 0 0 19.5992 9.2887 8.74525 -0.419126 0.26007 0.21148 0 
539 1 1 0 0 1.3222 1.20122 7.39319 0.21174 0.199395 -0.0842233 0 
524 2 0 -1 2.06948 10.0153 9.06124 9.35946 -0.991806 3.52135 -3.42636 2.17911 
729 1 1 0 0 11.4185 2.39441 8.05716 0.27751 0.180468 -0.0441743 0 
357 1 1 0 0 7.22821 0.150763 7.48976 -0.0804956 -0.180939 -0.418764 0 
415 1 1 0 0 9.24705 5.89085 10.5339 0.219802 0.136392 0.307966 0 
515 1 1 0 0 8.09858 5.07032 8.43647 -0.432642 -0.300446 0.213513 0 
365 1 1 0 0 6.05741 8.00553 6.71852 0.0773144 0.0085929 -0.199523 0 
90 2 0 1 2.96341 4.88125 4.05667 13.3147 0.778062 1.25605 2.36933 0.435232 
354 2 0 1 1.5743 5.40315 4.86148 10.6658 0.786877 -3.13437 1.27115 0.862398 
468 2 0 -1 1.99522 9.36331 3.09458 7.55312 -1.05349 2.60152 0.252724 -1.48495 
213 1 1 0 0 4.37734 2.89004 6.82497 -0.23199 0.0574886 0.030585 0 
157 1 1 0 0 16.9075 3.29729 7.5746 -0.206847 0.0175547 0.0360312 0 
266 2 0 1 2.22569 2.23249 3.64192 7.11323 2.04831 4.32883 -1.83326 -1.26585 
252 2 0 -1 2.14832 12.3851 6.66532 10.1733 0.187349 2.01744 -0.430672 -2.49564 
234 2 0 1 1.72268 12.534 2.23841 8.59994 0.991837 -0.202515 -1.652 1.66801 
47 1 1 0 0 1.22346 7.52272 10.3509 0.458139 -0.0587833 -0.312815 0 
424 2 0 -1 1.72549 5.80801 6.14523 6.85084 -2.12787 -1.10438 0.120392 -0.370299 
709 1 1 0 0 16.9151 7.19131 8.89801 0.130251 0.399217 -0.141582 0 
305 1 1 0 0 5.44565 7.49747 9.18124 -0.215596 -0.236296 0.0657824 0 
475 1 1 0 0 13.0623 8.15112 10.3743 -0.0277343 0.556235 -0.0760299 0 
635 1 1 0 0 15.9864 3.15835 9.84414 -0.317054 0.382459 -0.000875882 0 
323 1 1 0 0 6.16243 2.71551 9.58885 0.166137 -0.00288325 0.132243 0 
851 1 1 0 0 0.995741 3.88311 10.287 -0.210317 -0.346261 -0.128952 0 
183 1 1 0 0 3.39736 3.11032 10.9106 -0.257046 -0.0639664 -0.051663 0 
340 2 0 -1 1.73031 6.18195 0.759152 10.2861 1.10463 -0.532623 -0.457259 -0.484603 
327 1 1 0 0 5.45217 4.72519 9.64345 -0.160513 -0.351124 -0.15582 0 
804 2 0 -1 1.39219 3.60523 1.12703 9.29777 0.671264 -0.682275 -2.25949 5.61322 
329 1 1 0 0 4.80942 6.14234 7.6854 -0.323824 -0.0341891 -0.140532 0 
54 2 0 1 1.87101 6.662 7.79712 9.37478 0.0615675 1.94023 3.69339 7.02473 
685 1 1 0 0 11.5369 6.24468 12.7415 0.259288 -0.108475 -0.299381 0 
30 2 0 1 2.17796 13.3419 9.15964 10.8804 0.342376 1.78708 2.18978 -0.143601 
177 1 1 0 0 3.70496 1.48811 7.59854 -0.139908 0.0530101 -0.0881529 0 
760 2 0 -1 2.29631 0.547971 0.301649 10.5333 -1.49145 -0.338168 1.46237 -2.54575 
61 1 1 0 0 19.3264 6.18365 9.75278 -0.596557 0.284642 -0.17145 0 
392 2 0 -1 2.19649 6.53871 3.27684 10.2899 -3.37457 -1.82616 -0.659337 1.02471 
353 1 1 0 0 3.9693 1.31769 9.14432 -0.0109029 -0.466848 0.111715 0 
381 1 1 0 0 12.8627 8.63988 12.9065 -0.156907 -0.12379 0.215881 0 
697 1 1 0 0 5.95927 2.39872 6.72021 -0.135123 -0.00154437 0.0534372 0 
83 1 1 0 0 0.888271 9.12342 7.33515 -0.343369 0.101293 0.0871277 0 
484 2 0 -1 2.36387 1.23694 6.89466 9.76136 0.672806 3.62259 -1.29979 -6.66374 
563 1 1 0 0 17.0492 9.39057 9.06076 0.0300826 -0.124146 0.0930674 0 
362 2 0 1 1.93345 15.987 2.72945 9.93232 -0.426326 -3.20454 1.48984 2.22152 
93 1 1 0 0 13.3021 7.70957 7.47948 -0.0613218 -0.132095 0.122356 0 
487 1 1 0 0 13.5302 3.71166 6.79537 0.348111 -0.239498 0.149566 0 
509 1 1 0 0 13.3128 2.7709 13.2121 -0.329984 -0.149612 0.0745523 0 
645 1 1 0 0 14.1421 5.84019 8.90469 0.177001 -0.0307874 0.0872059 0 
25 1 1 0 0 1.87252 2.31484 9.30253 0.421323 0.00284932 -0.128937 0 
87 1 1 0 0 3.05567 7.36085 12.4968 0.0220346 -0.293533 -0.172945 0 
33 1 1 0 0 2.52871 5.3482 7.07597 -0.263112 0.15539 0.21299 0 
19 1 1 0 0 16.4716 2.19904 12.0467 -0.152409 -0.0728804 0.0107199 0 
691 1 1 0 0 11.0742 2.78102 10.5701 -0.24831 0.20085 -0.135419 0 
473 1 1 0 0 7.21205 7.51082 9.27178 0.0734103 0.349071 -0.102773 0 
225 1 1 0 0 17.5937 5.64588 7.85457 0.0394075 0.116176 0.116132 0 
491 1 1 0 0 19.7224 4.89209 11.1454 -0.0173695 -0.0200696 -0.0302693 0 
271 1 1 0 0 11.5268 1.27631 9.82037 -0.0592929 0.287249 0.352071 0 
825 1 1 0 0 2.73705 8.89564 6.96214 -0.032759 0.33039 0.566558 0 
175 1 1 0 0 16.22 9.68695 11.272 -0.109519 -0.150067 0.463564 0 
566 2 0 1 2.27708 13.5446 7.64619 7.81377 -0.331967 -0.155762 -4.08246 3.95485 
680 2 0 -1 2.60267 19.6069 7.27898 12.3857 0.194042 -0.792448 2.84116 1.12442 
446 2 0 1 2.24015 15.8292 5.72438 10.5746 -1.36739 -1.63942 -0.8027 1.72517 
396 2 0 -1 1.69776 16.3503 0.951949 7.7117 -0.950397 -1.62795 0.971982 0.079163 
517 1 1 0 0 12.1605 6.3511 9.4211 -0.0280331 0.149465 0.106421 0 
748 2 0 -1 1.75169 6.65951 7.97141 8.96327 3.66905 6.54739 -0.690723 3.53829 
198 2 0 1 2.07094 1.63004 1.59406 10.0038 3.43302 -1.74215 2.74583 -3.06798 
576 2 0 -1 2.28376 13.9352 1.91012 12.2837 -3.64151 -3.70215 1.51144 -0.039492 
587 1 1 0 0 16.9472 6.83489 7.034 -0.104117 -0.065775 -0.159944 0 
304 2 0 -1 1.58672 3.25535 6.00427 7.78282 1.57308 -3.50164 1.00764 -1.35573 
184 2 0 -1 1.49553 13.3403 9.63481 7.88958 3.81931 -2.78256 0.743749 2.6829 
60 2 0 -1 1.72249 17.3805 6.4717 8.53996 -0.0521716 -0.192245 -2.94645 -0.187403 
374 2 0 1 2.73805 0.340499 4.51573 12.5447 -1.68447 -2.53687 0.91995 -5.92185 
94 2 0 1 1.71926 16.7884 6.82729 7.57079 2.23679 -0.831451 -3.22457 -0.362153 
536 2 0 -1 1.58632 3.73613 4.82264 10.6467 0.356547 -1.60195 0.639127 1.14536 
445 1 1 0 0 17.4503 8.68261 11.49 -0.0315653 0.212911 -0.194371 0 
858 2 0 1 1.75567 4.43105 5.84797 7.78175 -0.352549 3.73325 2.41182 5.54799 
732 2 0 -1 2.79706 15.3835 5.00281 12.3077 -1.28192 -2.49205 -0.191766 2.65753 
852 2 0 -1 1.78265 9.53009 0.0137878 12.2647 -0.134264 0.0813022 -1.00107 -0.285868 
529 1 1 0 0 19.7097 2.59471 7.70273 -0.137305 -0.0441951 0.146519 0 
419 1 1 0 0 5.89365 9.80904 11.5514 -0.456278 -0.0880312 0.157046 0 
461 1 1 0 0 8.01819 8.58971 10.0256 -0.0907896 0.162006 0.0650569 0 
160 2 0 -1 1.80049 2.22853 9.30684 10.5698 -1.13931 -3.16686 -5.64563 -5.91192 
97 1 1 0 0 9.48315 9.31521 8.91863 -0.332377 0.332827 0.61877 0 
639 1 1 0 0 12.8316 0.675319 7.51422 -0.0355912 -0.168561 -0.257768 0 
761 1 1 0 0 10.4757 8.69449 10.5439 -0.118617 0.043629 -0.322645 0 
427 1 1 0 0 2.31689 1.74334 13.3071 -0.00258527 0.080453 -0.54604 0 
338 2 0 1 2.14187 12.9068 5.34581 9.81579 1.39567 1.81671 -3.97844 3.44081 
299 1 1 0 0 3.54635 5.7783 8.83105 0.207314 -0.0690113 -0.101587 0 
583 1 1 0 0 15.4539 0.881613 7.77978 -0.294003 -0.194856 0.280974 0 
325 1 1 0 0 5.80384 3.05453 11.94 -0.152208 -0.151774 0.0490233 0 
690 2 0 1 1.78224 8.68327 0.545264 12.8081 -3.02429 -4.847 -1.06173 -0.77636 
791 1 1 0 0 16.1794 5.3725 10.3486 -0.174885 -0.225211 -0.636198 0 
782 2 0 1 2.05886 10.1895 2.36652 9.75237 1.33144 -0.724879 -0.0887558 -0.976302 
636 2 0 -1 1.78104 9.28416 3.2949 12.0901 0.686216 -1.29946 1.38923 -2.0892 
76 2 0 -1 2.12047 9.02187 6.53498 12.674 -2.02323 2.92602 1.12814 0.412553 
346 2 0 1 2.0266 0.358965 9.41712 7.3095 -2.27895 -3.79371 -0.602437 3.6825 
714 2 0 1 2.66976 18.0803 1.29815 9.3145 -2.07552 0.397194 4.47846 -2.50536 
91 1 1 0 0 19.6105 8.09659 12.7747 -0.215817 -0.374339 0.110107 0 
857 1 1 0 0 14.6404 9.26758 8.21042 -0.0493346 -0.125924 -0.145986 0 
256 2 0 -1 1.15941 10.7096 2.9978 10.4842 1.81162 3.29891 0.558433 -0.642178 
734 2 0 1 2.08795 6.3637 0.89268 13.2648 1.59358 2.47466 0.30326 -1.6447 
454 2 0 1 1.73032 17.6325 8.47588 11.8068 -0.166616 3.20102 -3.93605 -1.0689 
290 2 0 1 1.96408 8.19799 4.99471 7.29553 1.66761 -0.492134 0.336398 -2.78953 
506 2 0 1 1.64639 9.30711 5.90429 9.3529 -1.755 2.04816 0.810873 -0.0867437 
37 1 1 0 0 18.7046 1.29747 12.9246 0.0271243 -0.391875 -0.264006 0 
236 2 0 -1 1.56897 16.2177 9.73117 11.3618 0.176363 -1.48849 -0.51354 -4.75222 
826 2 0 1 1.70337 19.1489 1.32891 12.6098 1.87537 -3.35792 0.522692 -1.81149 
510 2 0 1 1.60584 10.7464 4.71631 12.6624 -4.36448 2.28096 2.7278 0.504 
306 2 0 1 1.75157 0.817598 7.99561 12.3556 -0.172933 -6.79238 -1.44034 0.342001 
136 2 0 -1 1.42457 19.9519 4.25204 11.592 -1.12907 -3.0319 0.798178 -0.412203 
282 2 0 1 1.82803 13.7872 2.15531 11.3871 0.915242 0.632031 1.01664 1.30758 
625 1 1 0 0 7.44268 1.4773 12.9942 0.182726 -0.0163665 -0.791831 0 
246 2 0 1 2.29587 0.691361 7.85775 9.22699 0.00315145 -3.61309 1.03061 4.99561 
314 2 0 1 2.18025 8.19699 6.51146 13.048 0.797586 -2.99886 -0.164722 -2.3229 
22 2 0 1 2.28819 11.8188 7.8678 11.8718 -1.64597 3.39631 -2.04127 1.53793 
164 2 0 -1 2.78856 8.59474 8.6725 12.7796 2.15946 2.13716 -1.86388 2.9224 
472 2 0 -1 1.66572 19.2928 9.58807 8.16742 1.78642 0.890603 4.19778 -3.68808 
750 2 0 1 1.8005 10.3479 9.67675 7.64594 1.94921 -2.10698 3.50101 -4.26882 
694 2 0 1 1.77802 5.22912 8.67812 7.08667 2.3042 -0.97059 0.540322 0.474102 
324 2 0 -1 1.52418 11.2062 0.623741 9.85647 -1.23798 2.03688 0.56933 -1.85011 
640 2 0 -1 1.83833 9.04956 6.83344 7.30013 0.333749 1.55411 3.5288 0.0606289 
854 2 0 1 1.93969 14.515 9.89959 6.82513 -2.69716 3.83412 1.98554 -2.69563 
41 1 1 0 0 16.2627 3.86726 16.9029 0.126256 0.348833 0.0847598 0 
800 2 0 -1 1.90894 14.9828 2.29537 19.3294 -1.72393 1.74017 -0.128784 0.493302 
23 1 1 0 0 2.69842 5.42988 19.9984 -0.0290872 -0.00551503 0.0517384 0 
593 1 1 0 0 14.9292 0.774829 16.6353 0.00697138 0.0116463 0.168959 0 
739 1 1 0 0 13.208 1.40856 16.0167 0.161263 0.0132149 -0.320085 0 
795 1 1 0 0 14.2972 1.87652 18.5594 -0.221583 -0.14536 0.0594553 0 
855 1 1 0 0 15.9023 4.82329 13.4835 0.0422165 0.102919 -0.0226461 0 
130 2 0 1 2.37468 5.95386 7.28619 14.2931 0.701786 2.61155 -2.11801 1.28114 
186 2 0 1 2.27844 5.07615 2.29554 17.6061 -0.341992 1.51089 -3.95897 -1.21878 
298 2 0 1 2.25133 2.7107 0.158329 18.7559 -1.03508 4.35193 3.45561 1.30288 
265 1 1 0 0 3.98144 4.41747 15.7962 -0.0490947 -0.183598 -0.47305 0 
618 2 0 1 1.79487 14.8626 1.68482 19.7714 2.92839 -1.65469 2.80495 6.35198 
212 2 0 -1 1.74071 6.34439 0.780723 19.2469 -1.0101 -1.01401 -3.23675 0.931972 
310 2 0 1 2.8054 11.9383 5.52102 18.2313 6.11544 -0.54807 0.616775 4.67159 
172 2 0 -1 1.76206 15.6775 4.66838 15.2226 1.45921 1.74721 -0.290982 -0.906698 
532 2 0 -1 2.40813 17.1744 6.44523 19.3477 -0.212349 -3.54464 1.63149 0.419622 
69 1 1 0 0 3.03385 5.12866 13.6368 -0.125187 -0.206224 -0.293306 0 
117 1 1 0 0 14.8596 7.55437 20.0875 -0.119432 -0.436465 0.256589 0 
80 2 0 -1 2.6455 18.0683 0.755624 14.5221 0.0560997 -3.91063 2.4117 0.257767 
2 2 0 1 1.5869 11.3578 0.878676 17.1403 -2.4535 -3.44053 2.21362 3.63386 
638 2 0 1 2.96807 17.2108 9.78281 15.4955 0.52547 2.24539 0.765195 -2.94456 
813 1 1 0 0 11.4262 6.5805 16.6076 0.29832 -0.125844 -0.131838 0 
720 2 0 -1 2.00626 1.88161 8.81857 15.7278 -2.84314 0.207259 1.65677 1.77986 
516 2 0 -1 2.71728 12.6708 5.21023 16.66 -0.51249 1.4743 -3.41705 -1.48398 
449 1 1 0 0 7.716 0.0515999 13.8731 0.141765 0.309223 0.0686172 0 
612 2 0 -1 1.54483 2.35906 8.0546 18.1116 -1.5119 -1.77078 -0.422029 -2.69283 
771 1 1 0 0 17.208 6.26843 15.9511 0.173472 -0.0218289 -0.30577 0 
466 2 0 1 2.61431 13.7639 5.88897 16.7665 -1.62826 0.464931 0.440415 -0.873094 
646 2 0 1 2.71512 9.97726 8.95684 16.6927 1.56818 1.1626 -1.87341 1.31019 
88 2 0 -1 1.7368 9.37389 3.84932 15.7633 -1.4123 -1.08616 -1.82536 1.55678 
296 2 0 -1 1.80094 10.5851 7.04102 16.1902 0.747477 0.761246 -2.20643 -5.3462 
756 2 0 -1 1.34697 7.63317 8.81069 18.3041 1.53487 1.00505 -0.574009 -4.95846 
189 1 1 0 0 18.3521 2.81258 16.2537 -0.195648 0.0617722 0.0439961 0 
267 1 1 0 0 5.36493 1.32155 17.2088 -0.466852 -0.0169296 0.0195151 0 
753 1 1 0 0 10.8847 0.391884 16.5039 0.171954 -0.108807 -0.172309 0 
350 2 0 1 2.15863 18.4752 0.453499 15.5154 -1.87939 -2.16106 -3.0965 -2.95553 
698 2 0 1 2.07256 10.3102 2.61569 15.2212 3.61732 -4.67756 0.0596685 -1.61343 
535 1 1 0 0 15.2329 5.55375 16.8358 0.095448 0.181131 -0.122861 0 
693 1 1 0 0 12.0844 1.09911 18.5158 -0.291116 -0.00994831 -0.155732 0 
591 1 1 0 0 12.7629 9.22685 17.3099 0.00408522 0.36785 0.048021 0 
208 2 0 -1 1.23686 12.2805 7.75458 19.8993 -3.02969 0.786733 0.0317588 -1.94032 
735 1 1 0 0 6.05258 2.31713 18.313 -0.0223179 0.0312214 -0.214253 0 
215 1 1 0 0 5.97032 8.39589 14.6555 0.150422 0.412486 0.166075 0 
159 1 1 0 0 1.84979 3.84381 17.1353 -0.08255 0.225797 0.064545 0 
268 2 0 -1 2.43759 17.885 6.65337 15.5376 1.91385 -3.70455 -1.34683 0.653198 
31 1 1 0 0 0.00193637 1.69782 19.2324 -0.0768664 0.0235731 0.010247 0 
496 2 0 -1 1.44897 3.90981 4.72835 16.3626 1.23486 -0.597247 3.00833 0.276054 
207 1 1 0 0 5.79542 5.72793 14.6827 -0.125834 -0.00542432 0.0671805 0 
676 2 0 -1 2.41588 6.01802 7.21106 14.4487 1.66235 -4.62589 -2.95737 3.72077 
832 2 0 -1 1.89245 6.36417 2.5215 17.6516 -0.22128 -0.381305 2.98808 3.19286 
311 1 1 0 0 14.7726 4.84208 15.3262 0.0420252 0.0570354 -0.176765 0 
847 1 1 0 0 16.5705 2.9248 15.4892 -0.149979 0.0907204 -0.0947122 0 
613 1 1 0 0 12.8783 7.05216 13.6079 -0.206346 0.141536 -0.226759 0 
598 2 0 1 1.72838 16.3619 8.27893 16.3448 -0.0849729 3.28125 0.921819 3.52627 
823 1 1 0 0 6.99405 8.94249 18.5478 0.176164 -0.30206 -0.0806756 0 
723 1 1 0 0 17.9508 0.870213 19.0713 0.0404752 0.0986005 0.129567 0 
99 1 1 0 0 7.25928 4.02504 17.5789 0.0804917 0.0222377 -0.146852 0 
664 2 0 -1 2.26149 0.459652 2.27306 18.2327 -1.05334 3.17086 -1.18443 -1.53202 
367 1 1 0 0 11.1907 5.21177 19.7766 -0.129693 -0.100101 -0.108512 0 
370 2 0 1 1.66605 16.1552 4.14269 16.8827 -0.107154 -4.42777 2.25933 -2.94426 
404 2 0 -1 1.87113 5.73947 5.0828 14.7755 -0.363163 -1.12452 1.48714 -0.294254 
197 1 1 0 0 1.78271 9.89913 19.3992 -0.248994 0.0693228 -0.369275 0 
842 2 0 1 1.81104 17.8533 6.66125 14.2458 2.01897 1.51462 1.71954 -0.162619 
151 1 1 0 0 19.1237 7.37071 18.3434 0.34668 -0.193418 0.160666 0 
114 2 0 1 1.42831 2.01168 8.39304 17.8663 -0.135226 1.67881 2.9171 3.05989 
217 1 1 0 0 1.93937 8.45664 14.9726 0.0799926 0.0284994 -0.296662 0 
658 2 0 1 2.04525 9.47734 4.1189 18.8567 -2.29668 0.353662 1.19294 1.99933 
440 2 0 -1 2.45169 9.12351 2.56694 18.32 -1.6513 -0.442444 2.30775 -0.568872 
717 1 1 0 0 9.59645 3.34504 19.5421 0.365824 -0.0156208 0.0285938 0 
137 1 1 0 0 14.6104 7.51097 14.5115 0.0654657 -0.0630583 -0.0238994 0 
418 2 0 1 2.04943 13.6853 5.39067 14.0329 1.99385 -1.01198 -0.982898 1.39602 
492 2 0 -1 1.586 19.1938 1.72683 16.0893 -3.02692 0.908936 2.88266 -3.97484 
730 2 0 1 1.75028 17.5797 3.33422 16.0224 0.525035 4.01282 3.78868 -0.768978 
779 1 1 0 0 2.08028 6.60586 15.4673 0.479211 -0.0314392 0.129634 0 
455 1 1 0 0 12.929 4.03395 17.4095 0.241893 -0.207806 -0.0601481 0 
571 1 1 0 0 5.54189 1.20092 13.9236 0.00808501 -0.0933809 0.05068 0 
206 2 0 1 2.12533 4.71045 5.76675 17.9837 -1.8763 4.37244 3.43036 -0.509193 
123 1 1 0 0 9.81889 0.990218 19.3655 0.187489 -0.103715 0.128621 0 
818 2 0 1 1.73569 18.0119 1.06128 19.1603 -2.46024 2.03256 -3.54727 -0.978003 
438 2 0 1 1.67889 17.6841 4.99225 19.7397 2.14897 -4.7417 3.23384 2.11027 
622 2 0 1 2.06676 2.00391 1.5448 15.1367 5.69771 0.151767 -0.60016 3.07242 
592 2 0 -1 1.57576 13.5332 7.78437 14.0602 -4.6212 1.24907 -0.374117 2.69811 
542 2 0 1 2.58087 9.90119 7.43781 17.5502 2.64184 -4.39659 0.74403 2.27741 
214 2 0 1 1.47165 19.6414 7.99342 16.5656 -1.87619 -2.59095 -2.6292 0.7102 
574 2 0 1 1.44209 1.92473 8.34617 14.8516 -0.193865 -2.76893 -2.82014 -0.430825 
689 1 1 0 0 1.25918 5.21182 15.4844 -0.00145858 0.208902 -0.0473279 0 
169 1 1 0 0 9.85504 5.94186 16.5555 0.244415 -0.0661339 -0.216567 0 
281 1 1 0 0 3.48738 2.13168 16.9427 0.578763 0.11475 -0.144048 0 
501 1 1 0 0 4.64123 5.33684 17.2617 -0.259099 0.123315 0.00399295 0 
245 1 1 0 0 1.82099 8.54211 17.8404 -0.0804037 -0.145383 0.0965435 0 
143 1 1 0 0 0.329443 1.54858 13.413 -0.0532487 0.0729003 -0.120668 0 
467 1 1 0 0 8.74206 7.35014 15.8578 0.022342 -0.00569843 0.114402 0 
73 1 1 0 0 0.100614 4.08015 17.6381 0.00257036 -0.163936 0.373026 0 
428 2 0 -1 1.40736 5.68516 1.47275 13.6067 4.516 2.15953 -0.873635 -0.398148 
211 1 1 0 0 9.7814 3.65127 16.9922 0.0508687 -0.306509 -0.0374039 0 
21 1 1 0 0 17.3368 4.89839 19.074 -0.05643 -0.124217 0.102149 0 
701 1 1 0 0 7.06403 3.71853 19.817 0.0585258 0.537595 0.042203 0 
809 1 1 0 0 16.408 8.52075 16.0665 0.198502 0.0268207 -0.152996 0 
615 1 1 0 0 10.6377 9.46003 16.1701 0.0510397 0.136324 0.0990193 0 