ITEM: TIMESTEP
2200000
ITEM: NUMBER OF ATOMS
864
ITEM: BOX BOUNDS pp pp pp
0.0000000000000000e+00 2.0107868000000000e+01
0.0000000000000000e+00 2.0107868000000000e+01
0.0000000000000000e+00 2.0107868000000000e+01
ITEM: ATOMS id type q c_1a[1] c_1a[2] x y z vx vy vz c_1a[3] c_peatom c_keatom 
403 1 1 0 0 2.74284 0.748638 2.69194 -0.365056 0.190203 -0.202834 0 -0.329828 0.1132 
549 1 1 0 0 3.41022 4.48297 0.5974 -0.229898 -0.239673 -0.102226 0 -0.495503 0.0649074 
450 2 0 1 1.75901 4.37668 4.63719 0.588368 2.21538 0.991159 4.65576 0.0109259 0.123199 0.0735042 
664 2 0 -1 1.85762 4.61205 2.70651 4.59157 -1.44204 -1.03929 -0.979449 0.0591338 0.167889 0.0109898 
540 2 0 -1 1.88497 1.42041 4.90599 4.50817 3.64389 2.05329 -5.04772 -0.0493599 0.118988 0.11459 
46 2 0 1 1.82468 2.0429 4.85833 4.0107 0.0407298 5.38461 3.20575 0.0036114 0.0347525 0.104717 
863 1 1 0 0 4.14297 3.52234 2.23953 -0.170363 -0.0686528 -0.263668 0 -0.360414 0.0555064 
717 1 1 0 0 1.95368 4.25026 2.88942 -0.0693097 0.0504528 -0.0122342 0 -0.371566 0.0040311 
744 2 0 -1 1.80711 3.53605 4.50659 0.327968 -3.48921 0.417635 -0.293612 -0.00963041 0.077285 0.0331579 
333 1 1 0 0 6.64833 0.686246 2.37284 0.0159699 0.071088 -0.0550903 0 -0.294805 0.00448506 
683 1 1 0 0 1.61989 5.02398 4.70203 0.187745 0.144092 0.066103 0 -0.481523 0.0324576 
89 1 1 0 0 6.07087 4.23473 2.47314 -0.0670691 -0.110174 0.145333 0 -0.391226 0.0202971 
22 2 0 1 1.81872 3.41301 2.97009 2.67795 0.930282 4.63812 1.08651 0.0113024 0.104695 0.0628162 
235 1 1 0 0 5.83164 0.0414106 0.882014 0.241165 0.08918 -0.149579 0 -0.308986 0.0475667 
20 2 0 -1 1.68256 6.66857 0.0600367 1.44103 1.93912 -1.25896 -1.16105 -0.0410886 -0.0983561 0.0178503 
652 2 0 -1 1.73277 6.09156 4.39691 2.60068 -3.00441 -1.56114 -0.0214252 -0.0160938 0.00950776 0.0305687 
690 2 0 1 1.73124 1.41431 1.21579 4.77319 -0.495695 2.54896 0.556432 0.00529512 0.237392 0.0188051 
453 1 1 0 0 1.74659 2.10506 8.0698 -0.0966105 0.0915954 0.31205 0 -0.39487 0.0618714 
850 2 0 1 1.65643 2.0006 2.32254 7.3497 1.27951 -2.71785 -3.44998 0.0125963 0.068345 0.0557987 
77 1 1 0 0 4.49731 1.94115 9.36496 0.186357 0.136399 -0.188641 0 -0.187195 0.0477988 
831 1 1 0 0 3.11161 3.70855 5.47277 -0.0432235 0.0375748 -0.179403 0 -0.336796 0.0190646 
588 2 0 -1 1.77434 0.449542 1.6854 9.4571 0.384483 -2.03191 -0.462841 -0.0166075 0.0260837 0.0119747 
416 2 0 -1 1.75639 2.09338 3.04548 6.83835 -2.59174 0.22261 0.246336 0.0307899 0.132977 0.0182066 
274 2 0 1 1.73962 3.70584 1.53709 9.94382 0.370783 0.61864 1.54415 0.0108366 0.00683256 0.00774512 
428 2 0 -1 1.8688 5.63393 3.79371 9.19941 -2.46753 0.693321 1.97843 0.00103872 -0.128157 0.0279538 
111 1 1 0 0 3.18493 0.344173 5.42705 0.0199059 -0.0318162 0.121376 0 -0.434245 0.0086765 
609 1 1 0 0 3.08602 2.19029 7.09048 -0.0307748 0.0231479 0.0970997 0 -0.324654 0.00586538 
711 1 1 0 0 3.17235 4.70801 8.79113 0.166264 0.0340751 0.0727146 0 -0.236913 0.0183264 
63 1 1 0 0 6.18171 4.26026 7.17905 0.0219844 -0.00508341 -0.0715251 0 -0.239917 0.00302373 
452 2 0 -1 1.71011 5.20149 4.87418 6.93324 -0.531332 0.0894368 -0.7602 0.0467023 0.0295547 0.0023194 
627 1 1 0 0 5.22862 3.68983 8.68023 0.112548 -0.282166 0.0664777 0 -0.260755 0.0519834 
707 1 1 0 0 0.985859 1.54564 5.13531 0.123667 0.0813655 0.164214 0 -0.618664 0.0262756 
123 1 1 0 0 6.46921 2.85808 5.83938 -0.235187 -0.135508 0.0137463 0 -0.172918 0.039706 
518 2 0 1 1.83025 4.83099 0.325199 5.81534 -0.381366 -0.141147 -3.48747 0.0707311 0.0966803 0.0328813 
718 2 0 1 1.86821 5.7707 3.33115 8.40012 -4.51136 -0.208085 4.76002 -0.0170225 -0.153126 0.1148 
660 2 0 -1 1.82489 1.08809 0.79818 5.09766 4.02721 -1.10293 0.828005 -0.00466429 0.221216 0.048317 
418 2 0 1 4045.45 2.74241 4.53234 9.40178 -14.5584 44.6707 -53.5981 -2.01987e-08 -0.000163549 13.5459 
71 1 1 0 0 2.29001 1.91113 12.1247 -0.279651 -0.124307 0.0863668 0 -0.336318 0.0543553 
785 1 1 0 0 4.47318 3.22116 13.0045 0.252461 0.301796 0.200627 0 -0.195203 0.10486 
529 1 1 0 0 5.79419 2.13141 11.1475 -0.0683466 0.0782572 -0.173685 0 -0.232677 0.0220191 
561 1 1 0 0 0.493833 4.83455 11.8745 0.0684493 -0.082971 0.427226 0 -0.31952 0.104334 
796 2 0 -1 1.75869 5.83709 1.68814 11.3967 -4.76373 -1.59816 0.0271108 -0.0107716 -0.131508 0.0673223 
355 1 1 0 0 3.10836 4.50913 12.1554 -0.0387755 -0.0751001 0.26729 0 -0.288246 0.042245 
3 1 1 0 0 4.12655 2.43046 14.2612 0.0547858 0.084244 0.172966 0 -0.204261 0.0215106 
610 2 0 1 1.79815 6.22034 1.69347 11.0203 3.87013 0.251862 5.00457 -0.0694957 -0.102236 0.106899 
716 2 0 -1 1.62439 4.77955 2.91311 14.5351 -6.18012 5.73001 -3.91314 -0.00224593 -0.111042 0.230219 
668 2 0 -1 1.69577 0.28887 4.79759 12.063 3.99933 -1.40699 0.97003 -0.0235734 0.0796298 0.0504372 
805 1 1 0 0 0.666118 1.93102 11.1095 0.21368 0.240715 0.0551161 0 -0.350671 0.0573249 
170 2 0 1 1.75002 0.911937 2.60549 11.4239 -3.9863 -1.72904 4.28642 -0.00144042 0.0737086 0.0993341 
679 1 1 0 0 0.20173 4.89557 14.4999 -0.0725818 -0.115938 0.326842 0 -0.367302 0.0674821 
723 1 1 0 0 6.52243 1.31499 10.3372 -0.0833542 0.313127 -0.341064 0 -0.16273 0.118972 
306 2 0 1 1.68605 4.39992 3.0963 13.4678 -0.263177 -1.81131 2.78613 -0.0296626 -0.179301 0.0296329 
175 1 1 0 0 2.20335 0.220256 10.7129 -0.295452 0.0859476 -0.35834 0 -0.289459 0.119921 
408 2 0 -1 1.74549 2.32291 1.84312 12.5649 -2.04873 2.30308 -2.81152 -0.0117223 0.0125472 0.0464123 
411 1 1 0 0 5.50264 1.98204 14.7337 0.415015 -0.129883 -0.331056 0 -0.170847 0.16057 
724 2 0 -1 1.92292 0.571136 3.64978 13.7264 -0.058714 -5.04713 -0.28787 -0.00123234 0.117131 0.0681535 
510 2 0 1 1.71949 2.14277 0.0143043 13.7717 0.237012 -1.09638 1.01469 0.0263651 0.0231353 0.00610171 
803 1 1 0 0 2.37478 0.437893 16.0257 -0.105291 -0.1777 -0.185546 0 -0.506533 0.0414403 
527 1 1 0 0 6.22858 2.07851 19.6679 -0.211539 -0.0900135 -0.0115911 0 -0.385114 0.0284824 
60 2 0 -1 1.75197 5.58302 2.75166 19.7039 -6.34068 -1.97713 -2.07554 -0.0330527 -0.019477 0.129114 
134 2 0 1 1.90938 1.55758 2.78937 18.4785 0.595648 -0.787041 1.93827 -0.0102273 0.0410122 0.0126154 
209 1 1 0 0 2.79323 0.662519 18.704 0.234902 -0.0865763 0.158986 0 -0.411839 0.0472783 
26 2 0 1 1.7204 2.45481 0.53961 16.4922 -3.16338 3.621 3.77366 -0.00562065 0.0820574 0.0996155 
149 1 1 0 0 5.82774 0.378197 16.1625 -0.224608 0.0203397 -0.300432 0 -0.403953 0.0758606 
270 2 0 1 1.7295 5.74564 0.660172 15.8526 2.77483 -0.30791 -4.40026 -0.00302947 -0.0116706 0.0724115 
770 2 0 1 1.79105 5.34331 4.4714 17.0284 0.551874 0.623947 -1.69852 -0.00894074 0.121338 0.00954288 
790 2 0 1 1.72538 5.57564 2.34424 19.6371 -0.582917 -1.76297 1.38 -0.0206693 -0.0143431 0.0142722 
811 1 1 0 0 4.61373 0.335455 17.0479 0.260333 -0.0385098 0.101073 0 -0.298778 0.0427205 
281 1 1 0 0 2.52009 2.30395 17.045 0.234886 0.10922 0.248706 0 -0.286409 0.0693202 
287 1 1 0 0 4.27145 2.58782 19.0072 -0.072949 -0.252288 0.0872928 0 -0.337486 0.0411716 
541 1 1 0 0 0.884656 2.65521 19.2904 0.0400128 0.389799 0.0620807 0 -0.368225 0.0846099 
271 1 1 0 0 5.53883 3.79932 19.8903 0.277276 -0.284925 0.0795207 0 -0.379477 0.0883672 
253 1 1 0 0 5.36778 4.51707 16.7428 0.0192415 0.0670059 -0.105699 0 -0.544196 0.00861825 
804 2 0 -1 1.76038 3.07858 1.14424 18.7372 -3.09994 -1.48921 0.808284 -0.00395943 0.0105185 0.0332789 
844 2 0 -1 1.66613 2.52813 0.60384 15.7465 -1.10161 -3.84411 -0.967293 0.0164582 0.0412839 0.0451335 
440 2 0 -1 1.83707 4.93944 4.94447 16.7522 -1.18262 -0.415562 3.31067 0.012127 0.092052 0.0334154 
16 2 0 -1 1.65326 5.41965 0.509218 16.38 -0.00775902 1.67799 1.40536 -0.0192528 -0.0463985 0.0127749 
426 2 0 1 1.75228 3.48921 0.0383898 19.5186 -0.156995 1.99305 4.51571 -0.0129693 0.097202 0.0650306 
362 2 0 1 1.76029 2.61553 8.78484 1.08061 -4.07919 0.904964 2.59946 -0.0720749 0.0494238 0.0645805 
645 1 1 0 0 0.576923 8.84374 0.559455 -0.226579 0.171934 -0.138715 0 -0.461422 0.0538311 
635 1 1 0 0 6.16744 7.37186 3.71368 0.113346 0.129455 -0.259337 0 -0.369561 0.0520681 
244 2 0 -1 1.66726 4.94686 7.93172 3.69276 1.07531 -1.01134 -2.44611 0.0137712 0.131421 0.0217652 
365 1 1 0 0 2.74457 8.54493 1.05809 -0.0433086 0.418077 0.0725001 0 -0.370535 0.0977918 
617 1 1 0 0 0.395359 7.05394 3.14157 0.0652138 -0.188586 -0.00701717 0 -0.367382 0.0214304 
443 1 1 0 0 2.97959 7.03255 2.6555 0.0826175 0.175825 -0.065921 0 -0.395811 0.0226232 
222 2 0 1 1.77817 5.22517 7.63947 4.31928 2.5765 4.63337 -3.34413 -0.050805 0.0449958 0.104768 
151 1 1 0 0 0.375266 5.23499 1.77152 0.0273852 -0.0184807 0.0222754 0 -0.43431 0.000853462 
273 1 1 0 0 2.34539 9.06917 4.84085 -0.0135804 0.076342 0.112706 0 -0.455388 0.0100603 
665 1 1 0 0 0.914682 5.20325 0.148447 -0.00142738 -0.212515 -0.133852 0 -0.447205 0.0339093 
198 2 0 1 1.82985 5.411 7.77692 0.683685 -3.07906 -0.613778 -0.0086376 0.0130712 0.257008 0.0262845 
800 2 0 -1 1.76285 2.44121 6.93744 3.14693 -1.53731 2.7839 -2.91782 -0.0168944 0.157529 0.0496683 
113 1 1 0 0 4.77939 7.5207 1.45884 0.0316396 0.160862 0.00544973 0 -0.505724 0.014464 
601 1 1 0 0 4.78972 7.60392 4.23973 0.0752399 -0.0802269 0.220074 0 -0.488114 0.0325379 
286 2 0 1 1.76642 1.10827 5.6827 0.758462 -0.14731 -1.03931 -2.87885 0.00399481 0.086031 0.0250369 
100 2 0 -1 1.80902 5.87601 7.56632 1.13331 -0.415855 -3.55379 2.95433 0.0588904 0.214178 0.0574163 
96 2 0 -1 1.80406 0.9519 5.37456 1.23572 -3.40572 -2.24984 0.21937 -0.0437392 0.1256 0.0445568 
4 2 0 -1 1.76968 0.662221 9.52413 0.885274 1.5757 -0.490548 -0.154092 -0.00453263 0.128929 0.00732533 
220 2 0 -1 1.75272 2.92097 9.28608 6.33666 -1.79726 -4.73926 3.77763 0.0258537 0.116744 0.106555 
539 1 1 0 0 1.32403 8.71886 7.34946 0.0495564 0.144144 0.331346 0 -0.263304 0.0715069 
358 2 0 1 1.74521 0.111405 9.34303 7.71704 1.7345 -1.15398 -0.371412 0.0140169 0.00961404 0.011941 
159 1 1 0 0 5.56012 6.02514 6.11871 -0.191522 0.00653326 0.342285 0 -0.36196 0.0827199 
373 1 1 0 0 3.4806 7.04937 9.50884 0.243802 0.0219416 -0.169873 0 -0.318739 0.0477226 
13 1 1 0 0 2.9259 8.61346 7.62688 0.00941836 0.448536 0.062629 0 -0.281433 0.110303 
321 1 1 0 0 3.40629 6.06777 7.7772 0.0245298 0.0216651 0.16314 0 -0.340341 0.0148825 
861 1 1 0 0 5.55991 7.08641 8.77834 -0.0475136 0.42066 -0.0603711 0 -0.266061 0.0982953 
412 2 0 -1 1.69973 3.09933 9.35556 7.94485 1.88064 -0.171731 3.51662 0.0538789 0.124802 0.0424899 
110 2 0 1 1.79131 2.17701 9.09033 5.76757 -1.58528 2.70962 -1.49801 0.00354624 0.0321216 0.0322617 
629 1 1 0 0 3.0098 9.93245 6.45939 0.0937449 0.0523025 -0.446338 0 -0.411365 0.113285 
776 2 0 -1 1.81009 3.00895 6.39908 8.53652 -7.26424 -4.18289 -1.81811 0.0044142 -0.0958535 0.196173 
546 2 0 1 1.8595 6.45664 7.74349 8.90029 1.44498 -1.56782 2.11445 0.0373344 -0.028794 0.0240458 
266 2 0 1 1.7597 3.67588 6.72731 9.49168 -5.5263 0.156592 4.88234 0.0127789 -0.0160417 0.145059 
634 2 0 1 1.80022 3.27153 5.3758 8.05813 0.732697 1.55423 -2.61504 -0.00543868 -0.00306025 0.0261069 
10 2 0 1 1.83355 6.22672 5.53227 5.94568 -1.51551 2.20044 -3.46128 0.00014678 0.0348236 0.0509799 
775 1 1 0 0 1.76358 7.93593 12.8749 0.152423 -0.0265816 -0.183875 0 -0.385343 0.0310433 
466 2 0 1 1.64978 6.68744 9.19582 11.8958 2.82506 -0.142355 0.366644 0.0113336 -0.0732182 0.0216934 
231 1 1 0 0 1.47209 5.92581 12.6659 -0.0601051 0.279132 -0.199987 0 -0.223903 0.0653244 
161 1 1 0 0 6.18682 9.3767 11.536 -0.137903 -0.0396705 0.0660945 0 -0.270235 0.013417 
200 2 0 -1 1.78342 1.40944 7.49394 13.3905 -3.88748 -2.67784 -4.64879 0.00924455 -0.0177507 0.117042 
621 1 1 0 0 5.13435 7.44278 14.0222 -0.0853963 -0.0629236 0.0418699 0 -0.193751 0.00699087 
407 1 1 0 0 4.44659 5.29625 14.2373 -0.00898768 -0.241028 0.0799765 0 -0.201897 0.0347107 
352 2 0 -1 1.76602 5.64255 7.10576 14.5588 -1.6659 2.28261 -2.3124 -0.0532978 -0.173 0.0355565 
792 2 0 -1 1.64022 5.36698 8.85935 11.1199 -1.34455 -1.40539 2.21677 0.0394991 -0.104533 0.0231931 
548 2 0 -1 1.79972 3.89874 5.37813 12.4073 -0.324143 -1.87668 1.09998 0.0578982 -0.0762636 0.0129042 
829 1 1 0 0 5.76451 7.79989 11.099 -0.197892 -0.114115 -0.063982 0 -0.126497 0.0302521 
734 2 0 1 1.67232 1.74968 7.7596 13.9652 -5.36861 -1.5299 1.56103 0.0596448 0.0776111 0.0895977 
53 1 1 0 0 0.674182 8.51926 14.4037 0.156277 0.0645257 0.619912 0 -0.355195 0.221943 
535 1 1 0 0 0.262611 6.1138 10.2773 -0.160342 -0.37763 -0.207112 0 -0.412579 0.113536 
582 2 0 1 1.77381 2.32689 9.6884 11.6012 -4.01288 -0.645913 -0.231292 0.0433779 0.00537695 0.0441969 
326 2 0 1 1.8018 2.89713 5.15621 12.5727 0.271601 -4.78468 0.13754 0.007725 -0.0607671 0.0612903 
801 1 1 0 0 6.69064 6.20282 13.7855 -0.311274 -0.0377172 -0.0262819 0 -0.0660282 0.0532201 
335 1 1 0 0 5.83353 6.96793 15.6743 -0.138503 -0.105893 -0.221756 0 -0.34481 0.0427742 
118 2 0 1 1.81554 3.79671 7.12397 18.7191 -6.85647 1.80685 -1.67208 -0.0242311 0.0573708 0.141513 
442 2 0 1 1.74829 4.0453 9.39861 15.8629 0.107647 -3.3016 -1.03505 -0.0163527 0.0751689 0.0319536 
797 1 1 0 0 6.53638 8.92987 18.7256 0.252278 -0.0541971 -0.107118 0 -0.404942 0.0419591 
265 1 1 0 0 0.0642469 7.3309 18.0372 0.0422093 0.0804623 0.107777 0 -0.435449 0.0106821 
781 1 1 0 0 2.74496 7.9315 16.624 -0.128354 0.0245963 0.0465784 0 -0.344662 0.0103476 
839 1 1 0 0 1.76838 9.72357 19.546 -0.0617434 0.000810664 -0.00896599 0 -0.284387 0.00209285 
769 1 1 0 0 2.58341 6.81795 18.6832 0.350759 0.0139604 0.0673907 0 -0.27437 0.0686823 
150 2 0 1 1.74369 5.36542 6.79578 15.1717 -2.36127 -0.597532 -5.64736 -0.0164684 -0.0860383 0.100859 
217 1 1 0 0 1.23752 6.07772 17.336 0.291921 -0.045143 -0.00457053 0 -0.393724 0.0469157 
432 2 0 -1 1.78025 3.57103 8.48832 16.4242 1.95257 0.85465 -2.18634 0.00998912 0.0453801 0.0248594 
826 2 0 1 1.642 0.0612821 7.04973 17.8494 -4.1747 0.470768 1.97576 -0.0104116 0.0850836 0.0574708 
749 1 1 0 0 4.83954 6.57942 18.9336 -0.00276972 0.00719573 0.104845 0 -0.391248 0.00594096 
647 1 1 0 0 4.17048 9.30008 15.7635 -0.161171 0.0102089 0.288059 0 -0.467414 0.0586244 
572 2 0 -1 1.80465 1.43683 6.23388 17.5753 -3.16312 2.52775 -1.05136 -0.0177479 -0.0601716 0.0466638 
322 2 0 1 1.80696 0.704484 5.02759 15.6289 -0.721141 0.458953 0.916173 0.0248507 0.149553 0.00418768 
860 2 0 -1 1.72032 0.862285 9.92462 15.114 -2.41182 -5.56849 1.58415 0.0468242 0.0437542 0.104887 
445 1 1 0 0 1.83173 10.3897 1.63683 0.0182826 -0.0793355 -0.0512019 0 -0.444331 0.00497236 
555 1 1 0 0 1.52514 11.1486 3.49155 0.105654 0.375188 0.128529 0 -0.723481 0.0905499 
308 2 0 -1 1.85311 4.60969 12.0738 2.78152 1.86914 2.87822 -0.19753 -0.00883084 0.0511419 0.031509 
95 1 1 0 0 0.285048 13.9417 4.43007 -0.0421274 -0.219126 0.286686 0 -0.482174 0.0709459 
93 1 1 0 0 4.51722 12.009 2.60394 0.254564 0.127619 0.0511089 0 -0.466061 0.0449939 
262 2 0 1 1.8232 3.85626 13.5933 3.86344 -6.81815 6.6653 -2.09692 -0.0454177 0.037824 0.254143 
531 1 1 0 0 6.53654 14.1615 0.440169 0.03493 -0.115131 -0.0260081 0 -0.286273 0.00814485 
786 2 0 1 1.87771 5.30845 10.7575 2.14319 5.35194 -0.359662 -0.790835 -0.0221463 0.154802 0.0783887 
815 1 1 0 0 5.92086 11.1165 1.92395 0.0196804 -0.112846 0.335176 0 -0.378122 0.067444 
706 2 0 1 1.79557 4.77058 11.0771 4.50482 -3.36037 -1.7485 1.0399 0.059174 0.355612 0.041152 
576 2 0 -1 1.70372 3.38501 14.5799 4.30147 -3.75137 0.817402 -2.72956 0.0206411 0.0590746 0.0591728 
460 2 0 -1 1.70154 1.61704 10.8993 3.1525 -1.95071 -1.65108 -3.1103 -0.000786855 0.298369 0.0432102 
822 2 0 1 1.7061 1.16257 10.7633 3.276 0.319248 0.373332 1.49114 0.0342798 0.261988 0.00657454 
799 1 1 0 0 3.86267 13.5083 4.35304 0.0656276 -0.218762 0.0949427 0 -0.421634 0.0328864 
143 1 1 0 0 3.15277 14.1696 3.35136 -0.213569 0.124146 0.387534 0 -0.38707 0.113534 
128 2 0 -1 1.82878 0.747551 13.1467 3.5542 0.528497 1.63132 -1.18186 0.0287082 0.312174 0.0115668 
489 1 1 0 0 4.1377 12.2544 9.5821 -0.00970853 0.040972 0.102672 0 -0.29714 0.00661965 
782 2 0 1 1.60826 1.28894 12.6493 7.44418 -4.10459 -3.13537 -1.03727 -0.0534062 0.011849 0.0740102 
802 2 0 1 1.91768 4.66942 13.7458 8.73868 -0.231453 1.8416 1.52581 -0.0048753 0.00816905 0.0153938 
625 1 1 0 0 5.16441 12.9737 7.61153 0.383969 0.156256 0.201155 0 -0.335482 0.114129 
182 2 0 1 1.6846 1.20697 12.5987 9.81943 3.01831 -1.34293 -1.70207 -0.0197272 0.0516698 0.036826 
557 1 1 0 0 1.23643 11.7943 7.18552 0.233064 -0.00313297 0.343555 0 -0.413542 0.092652 
23 1 1 0 0 5.58337 10.913 5.85153 0.290689 0.315282 -0.118866 0 -0.456402 0.106453 
345 1 1 0 0 1.52245 13.0138 8.43196 0.0322885 0.041422 -0.0436216 0 -0.3359 0.00250562 
299 1 1 0 0 1.46622 11.7499 10.0035 -0.120545 -0.0824946 0.163192 0 -0.340645 0.0257853 
677 1 1 0 0 0.857452 13.2531 6.96423 0.11982 0.128395 -0.313101 0 -0.3689 0.0692769 
264 2 0 -1 1.87418 4.49641 13.2372 8.3989 3.38369 3.17577 -1.18478 -0.00561719 -0.00868403 0.0611643 
599 1 1 0 0 4.42477 15.0295 8.89645 -0.213173 0.0469862 -0.0175369 0 -0.342219 0.0257799 
688 2 0 -1 1.58482 1.31631 12.4053 7.29237 2.21356 1.12369 0.416401 -0.0480869 0.0134481 0.016899 
752 2 0 -1 1.81992 0.336187 11.7142 9.64632 -0.328675 2.96342 -1.44379 -0.0360694 -0.0211466 0.0292652 
596 2 0 -1 1.85414 5.92471 11.0988 6.48791 1.81322 -1.19607 -2.30074 0.00618531 -0.0142921 0.0266958 
806 2 0 1 1.78507 6.68597 10.115 6.50102 -4.02494 -1.8583 -0.442195 -0.030323 -0.0182234 0.0529277 
276 2 0 -1 1.72028 1.98887 12.9977 12.9227 0.513199 0.609552 -0.764621 -0.0147793 -0.0271646 0.00325234 
329 1 1 0 0 1.59159 10.4938 14.3369 0.0108022 -0.00661281 -0.113491 0 -0.37111 0.00700997 
285 1 1 0 0 3.22866 12.2809 11.8037 -0.24394 0.0806544 -0.0804034 0 -0.371536 0.0389599 
190 2 0 1 1.78041 0.909563 12.7524 13.4266 2.23618 1.36826 -1.82658 0.000339067 -0.019783 0.0272216 
764 2 0 -1 1.80091 3.49276 12.0282 11.2204 4.40966 -4.02068 1.31992 -0.00160922 -0.030084 0.0995997 
725 1 1 0 0 2.45366 14.7675 12.5171 0.290596 0.121994 -0.187501 0 -0.288642 0.072293 
778 2 0 1 1.66654 5.14469 10.9378 13.9319 -3.83701 -3.35049 -4.44402 -0.0271504 -0.0477531 0.121851 
523 1 1 0 0 0.508104 13.9863 13.5755 0.00150635 0.20336 0.124847 0 -0.221481 0.0306106 
47 1 1 0 0 5.17701 11.0805 13.4575 -0.164585 0.0702376 -0.0530694 0 -0.305783 0.0187272 
275 1 1 0 0 5.55996 13.5047 11.8443 -0.00351539 0.111574 -0.371128 0 -0.220663 0.0807387 
590 2 0 1 1.84406 4.16767 12.5198 11.6197 -2.38492 -2.54581 2.427 -0.00164137 -0.0376847 0.0481538 
587 1 1 0 0 1.71884 12.916 13.1082 0.0293552 -0.0705771 -0.435202 0 -0.358237 0.104954 
48 2 0 -1 1.80226 6.08541 14.2541 11.6862 2.94704 3.60674 -1.59962 -0.0224912 -0.165808 0.0646682 
187 1 1 0 0 3.41825 10.0579 11.2847 0.200047 -0.0234519 0.10581 0 -0.24297 0.0278262 
475 1 1 0 0 5.95446 10.2357 14.4601 0.146998 0.0179696 0.0510377 0 -0.250814 0.0131895 
640 2 0 -1 1.6585 5.35823 10.8364 14.4112 4.21198 6.22182 2.29699 0.028965 -0.0897102 0.164595 
305 1 1 0 0 6.62002 11.4349 16.0936 0.0341577 -0.168802 -0.0583388 0 -0.378061 0.0177738 
848 2 0 -1 1.85008 3.59438 14.3644 18.7988 0.470397 0.193024 2.77443 -0.00183156 -0.0555167 0.0212141 
739 1 1 0 0 4.42514 11.1892 19.3731 -0.104855 0.0805928 -0.027046 0 -0.23631 0.00979492 
214 2 0 1 1.69078 1.33158 12.9858 19.9269 2.01328 -0.966133 -0.468772 0.0018602 0.0368967 0.0138827 
5 1 1 0 0 0.272553 11.1947 19.639 0.0144773 0.233191 0.252239 0 -0.485688 0.0635451 
519 1 1 0 0 3.20067 14.4946 16.9727 -0.138856 -0.0655426 -0.0175848 0 -0.126427 0.01284 
501 1 1 0 0 3.51828 12.4563 17.5955 -0.29688 -0.0676085 0.218018 0 -0.184147 0.0753868 
451 1 1 0 0 4.80327 13.9603 18.8699 -0.314377 0.127152 -0.104195 0 -0.174611 0.0676548 
667 1 1 0 0 0.952376 13.5202 19.7815 0.00990982 -0.208383 -0.0376726 0 -0.407941 0.024158 
422 2 0 1 1.84794 5.33947 14.9969 15.496 4.42566 3.24857 2.87944 -0.0279962 -0.199996 0.102475 
562 2 0 1 1.77068 1.02481 10.7585 15.5795 0.222396 0.12188 -3.04931 0.0500194 0.091939 0.0249698 
545 1 1 0 0 2.45202 12.9767 19.4848 0.268256 -0.001669 -0.0925981 0 -0.25731 0.0432936 
252 2 0 -1 1.67399 0.7837 12.2595 20.0344 3.03706 -2.14823 -1.82894 0.0430827 0.150846 0.0458228 
794 2 0 1 1.81343 3.46343 12.8627 18.0127 6.1777 1.99258 -1.59583 -0.0229427 -0.215453 0.11914 
612 2 0 -1 1.8348 3.46687 10.4019 19.3773 0.43296 -3.9737 -4.63731 0.0270675 -0.000661212 0.0999455 
525 1 1 0 0 5.22529 13.3653 15.6262 -0.328772 -0.0376837 -0.145603 0 -0.178435 0.0702644 
191 1 1 0 0 5.69384 15.002 15.7076 -0.0140659 -0.160749 -0.0696825 0 -0.209268 0.0166069 
840 2 0 -1 1.7438 5.70726 13.0084 16.3631 3.29438 2.60251 -3.37126 0.037206 -0.0685513 0.0773062 
152 2 0 -1 1.90533 0.286416 14.3785 15.9679 0.663353 1.4021 -1.70187 0.0359592 0.0139009 0.0141407 
678 2 0 1 1.71595 6.45639 10.3576 18.847 -2.8687 -0.209766 -2.76997 -0.0285805 0.0692149 0.042521 
758 2 0 1 1.68056 6.65542 11.471 16.2634 3.65458 2.16766 -1.22362 -0.0258177 0.027043 0.0521352 
410 2 0 1 1.7386 0.48429 10.31 19.6477 -0.5573 1.84305 3.26853 -0.00958382 0.0937508 0.038372 
250 2 0 1 1.85111 5.43728 16.1639 4.11578 -0.626534 2.10396 -2.99109 -0.00311379 0.118297 0.0367056 
350 2 0 1 1.804 2.75214 16.0682 0.940041 -1.85759 -0.674631 1.54453 0.0400895 0.109642 0.0167787 
476 2 0 -1 1.81046 4.23862 18.7478 2.23234 -1.52739 -0.17652 -0.97996 -0.00513087 0.16986 0.00886437 
597 1 1 0 0 0.183062 19.259 0.272193 -0.228383 -0.0925209 -0.128747 0 -0.456463 0.0415499 
514 2 0 1 1.75985 0.895281 15.4576 4.54246 -2.00128 1.9005 -0.33591 -0.00961361 0.121117 0.0206113 
571 1 1 0 0 5.6507 16.5213 4.16629 0.32671 -0.0828868 -0.212772 0 -0.422529 0.0854072 
461 1 1 0 0 0.719294 15.6534 2.51539 0.0887093 0.194113 0.0291611 0 -0.381705 0.0249423 
447 1 1 0 0 0.723666 19.3075 3.49717 -0.00912642 0.0276201 0.0446133 0 -0.596878 0.00152477 
462 2 0 1 1.75185 4.02315 19.0512 2.79099 1.91294 -5.39476 3.19706 0.0253339 0.07003 0.114615 
291 1 1 0 0 4.38065 18.1352 1.39078 -0.0211157 0.0437403 -0.0880531 0 -0.467941 0.00543597 
477 1 1 0 0 0.187433 15.7156 4.83265 -0.0888101 0.0189014 0.0971723 0 -0.427769 0.00950766 
856 2 0 -1 1.92602 4.68204 16.1542 1.67087 2.21548 1.26978 -4.22497 -0.0257172 0.129013 0.064985 
86 2 0 1 1.69968 0.11318 19.2608 2.64295 -5.36125 3.9661 3.21399 0.0237082 0.237923 0.146128 
467 1 1 0 0 4.3859 15.3335 1.21904 -0.0798156 0.112211 0.298114 0 -0.342922 0.0579662 
551 1 1 0 0 3.78708 18.6175 3.26339 0.24538 0.0490613 -0.258378 0 -0.483193 0.0695472 
417 1 1 0 0 2.3253 16.0245 0.387335 0.0978913 0.0484893 -0.0639201 0 -0.571267 0.00861142 
132 2 0 -1 1.76708 2.3147 15.8373 0.556275 -2.86137 -1.56657 0.519845 -0.0172143 0.183144 0.0290963 
616 2 0 -1 1.67318 0.0809737 18.9674 2.99803 -0.25623 -3.11299 1.32004 0.00870946 0.221125 0.0306611 
84 2 0 -1 1.77833 0.32192 19.7087 0.445176 3.54461 3.76464 4.11514 -0.0130085 0.0830345 0.116446 
726 2 0 1 1.79608 6.25219 17.0342 6.07985 -4.5723 4.5339 2.85125 -0.00766438 -0.0197059 0.132233 
762 2 0 1 1.78392 1.02306 18.6048 6.58207 -2.51566 3.43389 2.10976 0.0210404 0.284216 0.0601855 
585 1 1 0 0 2.47207 18.5919 7.11726 -0.261393 0.0983416 0.0482261 0 -0.396397 0.0431779 
446 2 0 1 1.74327 3.40575 18.1953 8.08835 -4.42067 -1.97558 1.85358 0.010192 0.126188 0.0716766 
731 1 1 0 0 1.6042 15.8727 8.16806 -0.00865675 0.128043 0.13599 0 -0.447884 0.0187946 
787 1 1 0 0 4.40655 17.2852 8.3907 0.071233 -0.21643 0.116855 0 -0.448198 0.0352479 
469 1 1 0 0 0.403987 18.9217 9.52681 0.0474283 0.0155866 -0.154143 0 -0.410649 0.0141121 
284 2 0 -1 1.79047 1.71767 15.3169 8.09226 2.30436 2.43784 -2.10374 -0.0179967 0.0631009 0.0418072 
69 1 1 0 0 1.01135 18.5959 6.21438 0.392632 -0.0532578 0.133449 0 -0.597975 0.0939668 
819 1 1 0 0 3.01691 19.2094 8.35048 0.136095 -0.298097 -0.152946 0 -0.378705 0.070299 
512 2 0 -1 1.78833 3.02035 19.8184 7.67431 -1.22145 -0.839546 1.68549 -0.022113 0.100722 0.0134336 
1 1 1 0 0 2.46227 15.4376 5.629 0.00266978 -0.154646 0.0493348 0 -0.30822 0.014168 
517 1 1 0 0 5.37842 17.4926 6.19706 -0.00597438 0.333295 -0.191836 0 -0.344424 0.0795162 
812 2 0 -1 1.81621 4.69329 19.9173 5.22458 1.16554 1.51986 0.0386195 -0.00141059 0.104919 0.00978564 
405 1 1 0 0 5.31711 19.4939 5.05892 0.0465403 0.013694 -0.316735 0 -0.433137 0.0551931 
216 2 0 -1 1.79456 1.7226 17.8093 5.97574 2.433 -6.27212 -0.372418 0.0252682 0.162871 0.121051 
34 2 0 1 1.77042 0.89072 15.2896 7.96743 -1.25761 0.875467 1.66777 -0.0304956 0.0565909 0.0136792 
394 2 0 1 1.78428 4.67927 16.9192 9.32746 2.7407 3.67535 -1.58179 0.0239311 0.0835112 0.0627202 
295 1 1 0 0 6.47419 16.0602 6.29263 0.0755893 0.366061 0.114902 0 -0.289251 0.0822009 
568 2 0 -1 1.84614 6.04152 16.8951 5.56036 2.12911 -1.62577 -2.83772 -0.00192894 -0.0779163 0.0406069 
685 1 1 0 0 6.09525 16.3151 9.55882 0.137513 3.21319e-05 -0.473801 0 -0.275512 0.130839 
420 2 0 -1 1.94505 6.17217 17.437 8.85914 0.85309 -2.57347 -5.6816 0.0876177 0.0998076 0.105689 
196 2 0 -1 1.72421 0.699097 18.5579 9.25887 2.57072 -3.39696 -2.24393 -0.00538887 0.0864223 0.0618165 
504 2 0 -1 1.9178 5.05002 17.7955 9.11927 -1.82932 -1.63601 -6.95045 0.0578314 0.129702 0.144878 
212 2 0 -1 1.83397 3.53381 15.8273 10.2752 -5.15519 8.04145 -2.01359 -0.0198445 0.0879974 0.2541 
330 2 0 1 1.7201 6.41947 18.6725 13.4386 0.445311 -0.913587 2.45184 -0.0138818 -0.0585937 0.018784 
24 2 0 -1 1.68313 5.82022 18.9175 13.1569 0.20434 -1.1504 2.20219 0.00201673 -0.105726 0.0165714 
673 1 1 0 0 6.28809 18.1704 13.5236 0.158808 -0.142043 0.121602 0 -0.343929 0.0323516 
109 1 1 0 0 6.39819 15.4044 11.5061 -0.0827499 0.0467999 -0.253756 0 -0.22879 0.0394725 
80 2 0 -1 1.79555 1.22321 19.1162 13.2691 0.256826 -1.82403 2.71964 -0.024588 -0.00178096 0.0287706 
199 1 1 0 0 1.16487 18.9012 12.8537 -0.119131 0.0533479 -0.0449331 0 -0.33583 0.0102442 
807 1 1 0 0 5.57444 19.4868 13.5017 0.128002 -0.163855 0.16032 0 -0.291888 0.0370565 
296 2 0 -1 1.80188 2.8658 15.7322 13.052 -6.44498 0.502898 4.44555 -0.0190191 -0.0545912 0.164129 
307 1 1 0 0 3.61243 16.337 12.9006 -0.0270272 -0.445409 0.0264584 0 -0.165994 0.107414 
463 1 1 0 0 3.91825 16.2633 14.724 0.0294622 0.192661 0.016215 0 -0.223935 0.020561 
81 1 1 0 0 2.89959 15.9018 10.6106 0.13448 -0.0376765 -0.0116622 0 -0.392598 0.0105578 
331 1 1 0 0 2.63067 19.8907 14.0676 0.0548789 0.149364 -0.19813 0 -0.35574 0.0347136 
27 1 1 0 0 0.120529 19.4286 14.7794 0.112163 -0.276498 -0.0559836 0 -0.468199 0.0495439 
766 2 0 1 1.74757 2.63028 15.3364 11.7055 -0.396834 1.45332 1.4116 0.0296868 -0.0649293 0.0113666 
674 2 0 1 1.84835 1.50378 20.054 10.6374 0.524803 -0.916185 0.908491 -0.0287353 0.0434945 0.00517498 
788 2 0 -1 1.84203 3.93169 16.382 15.0502 -4.52351 0.990846 1.79988 -0.012727 -0.0918338 0.065817 
791 1 1 0 0 5.12113 18.2457 10.0688 -0.0641868 0.057045 0.478085 0 -0.322824 0.12683 
144 2 0 -1 1.71063 5.68804 16.535 18.1692 0.358465 3.68704 3.05786 -0.0287643 0.0957964 0.0615249 
397 1 1 0 0 5.36006 16.4978 18.9255 -0.0599426 -0.0854963 0.259464 0 -0.482249 0.0420497 
816 2 0 -1 1.72909 0.943257 16.4633 18.0246 0.650634 -1.43371 -5.60831 -0.00405296 -0.0519946 0.0904775 
14 2 0 1 1.83297 1.88067 15.4647 15.5638 3.34068 3.80769 -1.7017 -0.0150574 -0.0878573 0.076139 
232 2 0 -1 1.72207 4.1996 18.6521 19.962 -3.97548 -3.73423 -2.16014 0.0172099 0.215644 0.0917661 
117 1 1 0 0 4.72756 18.9117 17.1603 -0.102901 0.188003 0.240397 0 -0.277002 0.0557573 
201 1 1 0 0 3.72922 19.5668 19.7614 -0.275372 -0.0254223 -0.150103 0 -0.486999 0.0532215 
173 1 1 0 0 1.1968 16.9098 17.2031 -0.187219 -0.0445124 -0.110574 0 -0.3281 0.0264792 
166 2 0 1 1.73308 5.5487 16.7629 18.5369 0.359389 -2.49601 -0.530312 0.0178276 0.0322609 0.017707 
598 2 0 1 1.77502 0.89185 16.4543 17.9415 1.50208 0.847139 -2.63353 -0.0183462 -0.0462088 0.0264233 
193 1 1 0 0 6.34266 16.1331 17.4297 -0.167956 -0.0292911 0.123679 0 -0.388969 0.0238477 
743 1 1 0 0 1.02301 16.6167 18.9537 0.216177 -0.0736579 -0.284122 0 -0.374453 0.0714318 
563 1 1 0 0 0.417799 19.8021 19.0725 -0.182538 -0.139211 -0.00269438 0 -0.309362 0.0283329 
458 2 0 1 1.87867 4.61545 19.5734 17.378 -0.0919267 -0.584366 0.53565 -0.068224 0.0756964 0.00170744 
643 1 1 0 0 1.46815 15.3752 15.4996 -0.164609 0.140508 0.105212 0 -0.314373 0.0311287 
290 2 0 1 1.71452 0.171248 19.5567 19.5727 1.41276 3.85579 -1.41128 -0.0683788 -0.00460732 0.0502842 
763 1 1 0 0 13.3618 3.38739 1.21449 0.309615 -0.0391975 0.0681113 0 -0.502011 0.0548503 
842 2 0 1 1.78384 8.86094 1.63207 3.93138 2.92745 3.88733 7.2605 0.00517373 -0.0185832 0.203705 
689 1 1 0 0 8.73477 1.62137 4.10263 0.143501 0.0638046 0.154357 0 -0.469448 0.0260656 
324 2 0 -1 1.84403 10.0224 4.60997 1.8165 -1.74043 -1.48279 -0.625927 0.00140397 0.0530057 0.0149841 
293 1 1 0 0 9.87765 0.628775 0.558627 -0.0345041 -0.270251 -0.242173 0 -0.364957 0.0714268 
245 1 1 0 0 12.9185 0.26506 3.20639 0.0314955 -0.059792 0.0230858 0 -0.315072 0.00274152 
82 2 0 1 1.86631 11.7185 3.54146 2.63331 0.92968 4.04217 4.0857 -0.00215836 0.0628439 0.0903825 
215 1 1 0 0 10.3595 3.32362 2.1504 0.0088652 0.311183 -0.261325 0 -0.323019 0.088806 
375 1 1 0 0 12.6822 3.62615 3.18724 0.073532 0.278247 0.199003 0 -0.410716 0.0658129 
268 2 0 -1 1.86209 9.03822 1.47284 3.96943 3.79802 -0.99179 0.854912 -0.00404298 -0.0128549 0.0430349 
19 1 1 0 0 10.3552 2.40332 4.86388 0.176403 0.372614 -0.202248 0 -0.258745 0.11335 
356 2 0 -1 1.81507 12.6368 3.35267 4.01467 8.44778 -3.16267 0.880178 -0.00615206 0.0232867 0.219026 
480 2 0 -1 1.73512 9.48827 1.25816 0.333899 3.1419 1.68862 1.55134 -0.0105104 -0.0347709 0.0403423 
738 2 0 1 1.83897 9.39685 4.67862 5.01229 2.50868 -2.91569 -1.67026 0.0366272 0.159644 0.0468904 
392 2 0 -1 1.68141 9.02344 4.2532 9.68808 0.270629 3.11766 1.48135 0.0230611 -0.133703 0.0319648 
536 2 0 -1 1.80176 11.5813 0.728071 5.68858 -2.1717 -0.468856 -0.212998 -0.0223286 0.00870182 0.0132838 
314 2 0 1 1.81289 9.79962 2.42514 6.91909 -1.64559 -2.25709 -1.28408 -0.0266392 -0.0790978 0.0252027 
112 2 0 -1 1.73476 10.5152 0.323659 9.17477 5.41958 1.03687 0.957664 -0.0170029 0.0646882 0.0836307 
185 1 1 0 0 8.70432 1.06741 6.82379 0.030873 0.204515 0.215951 0 -0.295816 0.0480649 
97 1 1 0 0 10.1303 2.7017 7.32586 -0.215932 0.0289124 -0.0909309 0 -0.269149 0.0299584 
9 1 1 0 0 8.61257 4.53428 6.02568 0.248437 0.119876 -0.233174 0 -0.442671 0.0701297 
337 1 1 0 0 8.81413 4.64305 9.4048 0.125237 0.414913 -0.309144 0 -0.33868 0.152346 