ITEM: TIMESTEP
2100000
ITEM: NUMBER OF ATOMS
864
ITEM: BOX BOUNDS pp pp pp
0.0000000000000000e+00 2.0107868000000000e+01
0.0000000000000000e+00 2.0107868000000000e+01
0.0000000000000000e+00 2.0107868000000000e+01
ITEM: ATOMS id type q c_1a[1] c_1a[2] x y z vx vy vz c_1a[3] c_peatom c_keatom 
761 1 1 0 0 5.42136 3.03515 4.58206 0.25689 -0.0686093 0.0924378 0 -0.303678 0.0425982 
7 1 1 0 0 3.46039 1.05381 0.776234 -0.210451 0.328332 0.396867 0 -0.279504 0.166423 
349 1 1 0 0 3.54517 3.78143 0.367491 0.0943817 0.153288 -0.0248665 0 -0.400163 0.0177518 
745 1 1 0 0 4.61599 1.26443 2.60155 0.195245 0.0167806 -0.413479 0 -0.328383 0.112546 
139 1 1 0 0 0.738589 1.37927 3.59855 0.0564146 0.201615 0.0685027 0 -0.390994 0.026084 
248 2 0 -1 1.5133 3.82516 4.03831 0.877543 0.913191 -1.37098 5.2281 -2.59483 0.147555 0.0935821 
481 1 1 0 0 2.37822 3.32956 1.32822 -0.16591 -0.105022 -0.229692 0 -0.315231 0.0490863 
346 2 0 1 1.77719 2.07978 3.83157 0.803485 1.5328 -1.46373 -0.73343 6.7563 0.0138651 0.104699 
20 2 0 -1 1.42548 4.21716 1.23203 1.73155 -0.433164 1.11679 -3.30395 3.3901 0.0847814 0.0559164 
121 1 1 0 0 6.09604 1.22431 0.107769 -0.127665 0.323017 0.123249 0 -0.13919 0.0730148 
22 2 0 1 2.13901 4.81945 0.173618 2.22062 2.82853 -2.32509 1.31002 0.546831 -0.0854229 0.0409218 
312 2 0 -1 1.74239 0.463634 1.32453 3.54874 2.11114 2.39711 4.0805 5.7956 0.127298 0.138775 
673 1 1 0 0 2.89803 2.32223 4.84258 -0.119538 0.0844288 -0.390144 0 -0.254116 0.093335 
638 2 0 1 2.08763 1.33612 0.0715816 0.555527 5.89369 -1.90525 -1.26332 -3.39962 0.139464 0.129667 
484 2 0 -1 1.752 5.22072 3.26 4.77675 1.86823 -1.24775 -2.13072 0.547268 -0.072298 0.0261623 
706 2 0 1 2.52007 3.11173 2.54297 4.35641 2.58135 0.764333 -1.0443 3.11239 -0.0137991 0.0416053 
676 2 0 -1 2.28608 1.89771 4.49566 7.32033 0.988057 -1.12323 4.18052 4.13442 -0.0109944 0.0867516 
788 2 0 -1 1.58072 3.73956 2.91989 8.99542 0.973993 -0.287103 2.95195 5.91092 0.0936043 0.0958564 
835 1 1 0 0 0.438636 3.08039 7.29296 -0.131448 -0.044298 0.304565 0 -0.294397 0.0602062 
701 1 1 0 0 4.4704 3.98503 9.42267 -0.174406 0.193264 -0.0897502 0 -0.178539 0.0407592 
726 2 0 1 1.77326 1.78382 5.0213 8.44302 -2.75388 3.63175 -3.59628 7.88837 -0.0483216 0.214318 
97 1 1 0 0 3.44315 2.3052 8.88863 0.179761 -0.117231 0.0237567 0 -0.398122 0.0250614 
801 1 1 0 0 1.5165 4.32531 8.39797 0.189433 -0.0937406 -0.195826 0 -0.32298 0.0446275 
617 1 1 0 0 0.670741 0.838201 8.45408 0.0724136 0.211627 -0.262211 0 -0.389571 0.0638528 
559 1 1 0 0 4.91052 1.45277 5.61699 -0.00164857 0.217179 0.457089 0 -0.326028 0.137667 
306 2 0 1 1.82811 1.3533 0.906727 8.48698 -1.1894 2.59162 -3.78781 -1.86254 0.021011 0.0668754 
196 2 0 -1 2.571 0.780916 1.10439 7.64056 -1.80417 -5.05513 1.60944 0.666939 0.0337165 0.0846147 
386 2 0 1 2.2709 5.24603 1.45586 5.53582 1.26953 1.60526 -2.01839 -0.0222782 0.0783704 0.0220323 
823 1 1 0 0 3.76035 3.99933 12.8949 0.250582 -0.136364 0.0288393 0 -0.317126 0.0441966 
586 2 0 1 1.57202 4.85226 0.431126 12.229 -0.672142 1.67111 -4.0154 5.45775 0.073661 0.111212 
325 1 1 0 0 3.24785 4.67212 10.2862 0.0533195 0.338056 0.174187 0 -0.276746 0.0792707 
279 1 1 0 0 5.13406 1.87077 11.8296 -0.0829789 0.0109759 0.695047 0 -0.233447 0.263453 
21 1 1 0 0 5.25756 0.801823 12.9131 0.091432 -0.104762 0.181509 0 -0.457069 0.0281035 
579 1 1 0 0 6.44435 4.04262 13.5517 0.00268314 0.135937 0.388963 0 -0.176775 0.0912646 
68 2 0 -1 1.35053 6.6241 1.01399 10.828 -1.68528 2.82642 -1.25486 2.92459 0.157041 0.050178 
656 2 0 -1 1.87502 0.296344 2.33556 11.7365 -4.29912 3.6533 -0.377413 -1.11903 0.132454 0.0877539 
811 1 1 0 0 2.82434 3.89594 11.6881 -0.00611611 -0.0249712 -0.0245206 0 -0.413738 0.000678514 
252 2 0 -1 1.29186 4.94665 0.573719 13.2762 10.7694 5.71426 3.87087 0.0886489 0.230406 0.436288 
533 1 1 0 0 3.61547 0.878125 13.2445 0.150246 0.113292 0.392985 0 -0.301745 0.102052 
854 2 0 1 1.83726 3.07233 3.62351 12.3713 -1.62141 2.04943 -1.85217 -1.37777 0.134446 0.0311529 
260 2 0 -1 1.82699 3.63669 3.41402 12.5489 -0.838919 2.7326 -2.2407 0.241682 -0.0149794 0.0352914 
827 1 1 0 0 2.22898 2.19273 14.3068 0.142357 0.443023 -0.42655 0 -0.369297 0.214204 
240 2 0 -1 1.59046 1.62473 2.64122 14.9086 -5.65881 0.261575 -0.533907 2.4817 0.0811849 0.098644 
200 2 0 -1 1.45421 2.5582 4.43475 10.0789 -0.304685 0.400641 -0.907166 0.152847 0.207199 0.00291659 
62 2 0 1 2.1248 1.64184 4.3246 11.6533 -0.573592 -4.20791 -1.61465 -4.04172 0.166878 0.0877102 
148 2 0 -1 2.01345 6.63397 3.0521 12.3549 -0.728235 0.921985 -0.234008 -1.3788 -0.0560984 0.00762854 
622 2 0 1 1.69969 5.77593 4.9779 10.6441 2.58314 0.379006 0.295054 8.31707 -0.141451 0.156742 
385 1 1 0 0 1.45325 3.2619 15.0563 -0.113185 -0.466211 -0.296887 0 -0.425719 0.171106 
862 2 0 1 1.91166 3.89208 2.46603 10.4662 -2.42512 0.057025 2.77028 -3.62728 0.143704 0.0624659 
160 2 0 -1 1.71788 2.41224 0.799306 17.667 -4.90873 -1.10301 6.76417 -1.36384 0.0743953 0.193213 
507 1 1 0 0 5.12422 0.842578 18.2615 0.137784 -0.461493 0.125388 0 -0.27132 0.133142 
261 1 1 0 0 3.65047 2.26713 16.717 -0.499355 0.0762742 -0.0300076 0 -0.340353 0.137653 
477 1 1 0 0 3.61349 4.92944 16.6355 0.0215216 0.231673 0.0789526 0 -0.381592 0.0324516 
678 2 0 1 2.10334 2.30795 0.688722 18.8704 3.56601 -8.34625 -2.24658 4.71126 0.185728 0.277497 
431 1 1 0 0 0.589256 1.42466 17.5293 0.176303 -0.096538 0.207022 0 -0.432633 0.0447567 
165 1 1 0 0 4.1796 4.30268 18.2997 -0.0105921 0.0828937 0.251069 0 -0.421451 0.0376389 
16 2 0 -1 1.74716 3.76157 4.62613 18.195 -1.55806 7.16536 2.366 -1.5964 0.042734 0.163397 
37 1 1 0 0 2.77566 0.967017 18.276 -0.00219415 -0.118473 -0.0078403 0 -0.423803 0.00758066 
750 2 0 1 2.06557 3.40275 1.74656 15.7499 -1.64381 4.81315 -7.12494 3.61062 0.156514 0.230408 
858 2 0 1 1.95999 4.19499 4.32753 16.9681 2.65179 0.341638 -0.663706 -2.52178 0.00996313 0.0329537 
566 2 0 1 1.73023 5.116 1.7015 18.8339 -1.97587 1.86989 -3.14207 -1.67969 0.038142 0.0516999 
234 2 0 1 2.35227 1.18119 2.72953 16.1435 4.05221 -2.75919 -0.948719 2.93734 0.133158 0.0837383 
515 1 1 0 0 3.05321 6.35238 1.27616 -0.0330092 0.254512 -0.0993762 0 -0.440783 0.040715 
201 1 1 0 0 1.15909 7.28721 4.61785 0.120353 0.320245 0.266385 0 -0.451103 0.101062 
731 1 1 0 0 1.37976 5.27464 1.68763 0.0210615 -0.082054 0.233181 0 -0.446699 0.0330862 
822 2 0 1 1.91568 5.41857 8.70716 4.02426 -3.71931 0.945989 0.735609 3.48234 0.0347656 0.0649657 
112 2 0 -1 1.67415 5.77222 7.58554 3.38671 0.192355 -4.6725 -3.4958 -3.02942 0.0185751 0.109252 
341 1 1 0 0 6.33767 7.79715 3.84503 0.473751 -0.0404085 0.130954 0 -0.258906 0.130744 
303 1 1 0 0 1.5927 8.7886 0.739432 -0.30362 -0.343627 0.0104662 0 -0.296447 0.113087 
384 2 0 -1 2.2663 0.830593 9.76815 1.34654 -0.0269771 -0.614559 1.10898 5.2352 0.0657951 0.0590981 
191 1 1 0 0 6.60645 8.59653 0.271584 0.333481 -0.0262346 0.132041 0 -0.392154 0.0695231 
410 2 0 1 2.03551 4.40794 6.00788 4.1236 -1.68416 -2.97487 2.1486 -5.3931 -0.0213504 0.101636 
415 1 1 0 0 4.64649 6.39047 3.8137 -0.225411 0.115798 0.185794 0 -0.348656 0.0530772 
534 2 0 1 2.04054 1.19539 6.9569 0.555275 0.0718999 2.85875 -1.63199 0.508085 0.0650776 0.029423 
411 1 1 0 0 4.89248 9.5465 4.49746 -0.150967 -0.203707 0.115389 0 -0.210516 0.0417154 
464 2 0 -1 1.7313 2.66141 6.52262 0.860879 4.94516 -1.49255 -1.53725 1.39123 0.232332 0.0813183 
108 2 0 -1 1.92024 1.51187 7.08237 4.56464 -0.722197 -6.53831 -1.29898 -4.24189 0.121073 0.155863 
59 1 1 0 0 2.64114 9.51433 3.20553 0.203358 0.142572 -0.453837 0 -0.287932 0.143876 
391 1 1 0 0 6.61526 8.61557 3.01459 -0.172576 0.0587969 -0.292333 0 -0.271544 0.0638064 
646 2 0 1 2.20391 2.07303 9.16664 3.07126 -3.05997 1.03529 2.95558 -4.19564 0.0365172 0.0863211 
375 1 1 0 0 4.21664 5.20149 4.91565 -0.0856268 0.0774929 0.0112408 0 -0.304565 0.00723732 
512 2 0 -1 1.44244 0.772395 6.17643 1.41115 -0.673578 -0.212393 0.468244 1.23951 0.337189 0.0049872 
99 1 1 0 0 0.086917 6.69116 1.20885 0.106081 0.295269 -0.0433234 0 -0.472227 0.0539241 
538 2 0 1 1.72617 0.309142 5.48285 3.77684 -5.42342 3.7086 2.35347 -4.11337 0.336173 0.163708 
712 2 0 -1 2.04606 5.12651 6.80906 0.122636 5.33305 5.07251 -0.843679 1.01932 0.126826 0.148421 
772 2 0 -1 2.11279 6.52363 9.12527 0.180201 4.65325 1.12119 2.63323 6.50594 0.0464897 0.164223 
46 2 0 1 2.15348 1.80333 10.0401 6.83012 4.58234 7.30852 -1.12589 -0.858788 -0.00825372 0.20327 
176 2 0 -1 2.30233 3.55276 7.17605 7.99933 -2.51636 -2.81994 4.8702 -9.42727 -0.0886298 0.279063 
553 1 1 0 0 3.56842 8.75409 5.44433 0.141332 0.334159 0.16768 0 -0.172006 0.0858758 
60 2 0 -1 2.04056 4.25529 6.13477 5.09115 -1.17462 -0.36337 -3.03854 0.0304433 0.0373659 0.0286513 
807 1 1 0 0 3.11681 5.88973 7.1589 -0.164875 0.233305 0.127424 0 -0.178651 0.0526004 
570 2 0 1 2.56596 5.10012 10.1345 5.86619 -5.99519 2.44059 1.49104 -6.22996 0.0907023 0.195266 
333 1 1 0 0 0.164907 7.30852 7.37541 -0.0238792 -0.0402304 -0.176019 0 -0.371204 0.0178313 
339 1 1 0 0 3.51832 7.80108 9.78404 0.530549 -0.112631 0.0947082 0 -0.110286 0.162953 
166 2 0 1 1.95092 4.32127 7.49388 7.8051 1.29414 0.584696 -5.35358 4.42697 -0.169093 0.120992 
374 2 0 1 1.66199 5.89214 9.86676 8.89303 3.05783 -4.35486 -3.18606 -0.555856 0.214191 0.103185 
203 1 1 0 0 5.175 7.6747 7.09811 0.107697 0.220391 0.443163 0 -0.235572 0.137917 
419 1 1 0 0 1.71041 6.07037 6.03365 -0.253198 -0.101803 0.136167 0 -0.334569 0.0500003 
519 1 1 0 0 6.16733 9.11579 8.60851 -0.0807548 0.00260452 -0.213975 0 -0.306443 0.0281213 
679 1 1 0 0 4.2164 9.89308 9.22107 -0.0711862 -0.278806 0.126881 0 -0.27881 0.0531635 
77 1 1 0 0 3.42103 7.85301 7.91351 -0.167884 0.0213761 -0.222123 0 -0.193541 0.0419186 
128 2 0 -1 2.4629 4.74626 8.84665 6.98419 -0.181155 -1.81694 2.93054 -4.48846 -0.0230221 0.0720786 
113 1 1 0 0 0.069863 8.8384 7.43138 0.231997 0.0123955 -0.335814 0 -0.474839 0.0896352 
504 2 0 -1 1.67606 1.1174 9.19223 9.14239 -0.125091 0.106805 0.383607 -0.10036 0.240783 0.000484659 
582 2 0 1 1.91333 1.44645 5.87645 5.41924 2.3497 2.48047 -1.71915 -3.23537 0.179294 0.0599414 
342 2 0 1 1.81294 3.96128 9.98002 9.39955 -0.630678 -0.561484 -1.14006 10.5591 0.0177484 0.228338 
490 2 0 1 1.88876 5.47355 9.17903 12.2422 -0.0387705 -3.48684 -5.82929 1.71393 -0.0533555 0.128904 
522 2 0 1 1.64121 1.98065 7.297 10.8839 0.702762 -1.55175 -0.793068 -1.50971 0.0102929 0.0139726 
699 1 1 0 0 3.17745 8.75345 13.8109 -0.0550227 -0.015265 -0.16656 0 -0.155067 0.0166656 
175 1 1 0 0 1.15608 5.55569 10.2797 0.28729 -0.038704 0.261687 0 -0.276511 0.0819842 
11 1 1 0 0 0.237528 9.96772 10.3021 0.0208988 0.0457903 0.245976 0 -0.405113 0.0338861 
478 2 0 1 2.1517 1.30132 7.2748 14.5321 -2.21223 1.4252 0.330341 1.60946 -0.0528259 0.0239367 
433 1 1 0 0 4.17797 5.59817 14.5956 0.213576 0.0777521 -0.218837 0 -0.226729 0.0535131 
459 1 1 0 0 1.60296 7.0418 13.9138 -0.207529 -0.118982 -0.199902 0 -0.244558 0.0522424 
397 1 1 0 0 2.44893 7.51036 11.2402 -0.0525006 -0.0099114 0.0804206 0 -0.367195 0.00501108 
135 1 1 0 0 6.17259 9.53928 10.8583 -0.0157036 -0.166466 0.00388456 0 -0.36616 0.0150367 
308 2 0 -1 2.32881 6.14537 5.88442 11.57 -3.39426 4.10792 -0.856247 0.674973 -0.103789 0.0785819 
171 1 1 0 0 4.99696 8.73852 12.7037 -0.194009 0.0668605 0.250441 0 -0.283585 0.0563519 
612 2 0 -1 1.76015 6.06492 6.37108 14.8953 1.29012 -3.06035 1.92626 0.497339 -0.0597062 0.0397996 
9 1 1 0 0 5.76697 5.71498 10.4615 0.0119576 -0.185529 0.107567 0 -0.169648 0.0247997 
479 1 1 0 0 6.42054 7.37334 14.8149 0.0390554 -0.0588354 0.19267 0 -0.261425 0.0226357 
284 2 0 -1 1.47823 4.83961 9.00375 14.1573 -5.38378 -3.36481 7.73018 -0.15489 0.0930117 0.266859 
735 1 1 0 0 0.0533471 9.0673 12.6988 -0.133886 -0.187322 -0.148671 0 -0.359739 0.0403798 
418 2 0 1 4015.71 1.38679 5.54915 14.1561 5.47138 0.439012 -3.89139 1.14935 -8.21686e-05 0.123356 
300 2 0 -1 2.00755 2.71778 7.34874 11.3773 -2.28189 2.2455 2.50387 4.88897 -0.0919287 0.0918456 
755 1 1 0 0 6.63668 8.31698 18.9274 0.327796 0.257014 -0.135913 0 -0.258055 0.103199 
270 2 0 1 2.192 0.406008 9.29954 18.7668 2.82136 7.91844 -3.15816 -2.17963 0.0606406 0.224511 
368 2 0 -1 1.88984 1.01316 6.87536 17.4667 -1.14597 -1.39394 1.36952 5.01154 -0.0296391 0.0639105 
847 1 1 0 0 1.24517 9.16551 15.6948 0.12046 0.279291 0.434308 0 -0.499558 0.151126 
581 1 1 0 0 4.6729 9.37276 15.1743 -0.222383 0.0645153 -0.150036 0 -0.404446 0.0409225 
70 2 0 1 1.9341 4.30132 9.61049 15.6524 -3.74011 1.7981 -4.34633 -3.67036 0.0133088 0.123231 
233 1 1 0 0 1.67086 7.58011 19.3835 -0.0247018 -0.00194989 0.0993377 0 -0.229194 0.0056346 
395 1 1 0 0 3.31982 6.86424 18.1292 0.27872 -0.467185 0.184539 0 -0.254824 0.177393 
531 1 1 0 0 1.57518 7.31028 16.7463 -0.184187 -0.0531968 0.185333 0 -0.391027 0.0382216 
170 2 0 1 1.84677 2.36284 7.42472 17.0629 3.0527 1.56648 1.17122 1.4134 0.0266419 0.0390442 
449 1 1 0 0 5.3345 5.68905 19.8224 0.298002 -0.207963 -0.27925 0 -0.508519 0.112904 
846 2 0 1 1.42299 5.03528 5.30402 19.4263 -5.49483 -4.52875 0.210449 -3.90591 0.220331 0.165823 
412 2 0 -1 1.34009 1.31087 9.23923 15.826 -2.39238 -0.646546 -0.58018 -1.70944 0.175781 0.0231173 
510 2 0 1 2.15466 6.65345 7.77631 17.6769 -0.943624 -2.30031 3.31936 5.49135 0.000979519 0.106167 
136 2 0 -1 1.71956 3.40937 5.13543 15.4245 -3.44363 -2.90372 1.59797 -0.366061 0.028008 0.0611792 
2 2 0 1 1.96873 2.03657 11.1086 1.64545 -2.9587 -4.81702 1.42503 -0.951122 0.172725 0.0924366 
587 1 1 0 0 2.83418 14.0799 3.64277 -0.219969 -0.153602 -0.155361 0 -0.300372 0.0516679 
455 1 1 0 0 5.45943 12.4086 4.2857 -0.0179356 -0.0284108 0.318798 0 -0.190946 0.0552394 
720 2 0 -1 1.96802 3.12413 15.0917 3.32943 0.321923 5.32173 -2.67469 6.42979 -0.0343001 0.177544 
295 1 1 0 0 0.0713017 10.0752 2.0213 0.229552 -0.00776837 0.0562882 0 -0.323659 0.0300615 
791 1 1 0 0 4.30367 14.6914 2.2331 -0.138914 -0.0125476 0.485354 0 -0.279514 0.137088 
667 1 1 0 0 0.986565 12.1302 0.165986 0.205543 0.040084 0.208611 0 -0.455574 0.0469678 
799 1 1 0 0 3.70196 11.6983 1.2516 -0.1123 -0.121906 0.0261664 0 -0.378151 0.0151359 
640 2 0 -1 2.19502 5.06165 12.9157 1.37484 -0.0394944 1.07121 -2.67387 2.05088 0.0554014 0.0305392 
488 2 0 -1 2.79239 5.34749 11.5579 3.9818 -2.29521 5.11857 -0.87357 -3.1394 -0.0409534 0.105651 
403 1 1 0 0 6.49877 14.6408 3.11254 -0.156733 -0.132836 -0.0980466 0 -0.115679 0.027858 
626 2 0 1 1.55052 3.62983 14.167 3.30498 3.27299 1.23947 -4.96629 1.33275 0.0330569 0.101977 
675 1 1 0 0 6.58335 11.4996 3.90017 -0.387724 -0.228371 0.098749 0 -0.179844 0.114087 
424 2 0 -1 2.02631 0.383674 13.3309 -0.0489839 1.62058 1.37592 -4.39365 -4.00645 0.148294 0.0956245 
382 2 0 1 1.51045 6.66823 12.0557 4.15304 -0.532451 -0.954531 -4.28771 0.0293762 -0.0968158 0.052208 
758 2 0 1 2.37954 5.85043 11.2321 0.962518 -7.69802 -1.8052 -0.562542 4.25064 0.0787534 0.203677 
406 2 0 1 2.0749 2.55074 14.5961 0.0832626 2.37929 -4.43359 -3.2557 -1.90032 0.110118 0.102993 
30 2 0 1 2.07083 6.53257 13.0716 8.28686 -0.782598 1.66115 -1.43025 -0.0563607 0.0163568 0.0144518 
198 2 0 1 1.71538 4.26833 12.5432 5.4886 -1.72522 -1.34464 0.859493 3.21948 -0.0219807 0.0354555 
205 1 1 0 0 3.34022 15.062 6.20831 0.0529968 0.0646354 -0.126236 0 -0.21958 0.0123217 
489 1 1 0 0 0.824285 12.8843 6.7656 -0.289159 0.16196 -0.101299 0 -0.217308 0.064563 
551 1 1 0 0 3.95694 12.8609 5.66912 -0.139022 -0.0140432 0.664622 0 -0.274678 0.247945 
623 1 1 0 0 2.95962 13.2385 8.15948 0.14234 -0.198796 0.113723 0 -0.0941444 0.0390873 
717 1 1 0 0 0.162699 13.1664 9.9111 -0.0406516 0.0266919 -0.0049062 0 -0.36646 0.00128426 
117 1 1 0 0 6.11318 15.0239 9.19105 0.133576 -0.048548 0.0616463 0 -0.233821 0.0129011 
91 1 1 0 0 2.26895 12.7975 9.56455 0.0985337 0.201918 -0.424832 0 -0.15095 0.124154 
247 1 1 0 0 5.1907 11.4443 7.26856 -0.0593193 -0.175193 -0.022629 0 -0.208041 0.0186656 
453 1 1 0 0 1.19133 14.3786 7.96275 -0.371786 0.00118251 0.359961 0 -0.228609 0.143956 
688 2 0 -1 1.83751 3.3111 13.0405 9.55345 0.080624 1.62639 0.443532 -7.57128 -0.00978052 0.122233 
604 2 0 -1 1.76427 1.34951 13.8839 7.53612 5.27099 -2.36523 -1.69914 0.914547 -0.161227 0.0983701 
50 2 0 1 1.72062 1.40077 13.6704 7.34667 -5.5801 1.75995 2.11819 1.84865 -0.171199 0.110083 
199 1 1 0 0 2.41366 10.4953 9.02908 0.0520577 0.216536 -0.0984368 0 -0.227014 0.0318702 
829 1 1 0 0 1.99406 10.3851 5.40367 -0.0809503 -0.17756 0.154714 0 -0.251425 0.0333372 
588 2 0 -1 2.31639 2.44225 10.3833 5.80736 1.54721 -2.19152 -2.16261 2.88309 -0.0739417 0.0482829 
316 2 0 -1 1.90459 3.46226 14.4456 5.95044 2.35421 -4.2669 0.238401 -0.55037 -0.085766 0.0640818 
336 2 0 -1 2.27842 3.4427 11.1834 9.9117 -2.70728 4.6242 -3.30482 2.73391 -0.0162838 0.12063 
317 1 1 0 0 2.22228 11.1962 11.3185 -0.23417 0.0522113 -0.28026 0 -0.135162 0.0731649 
615 1 1 0 0 2.78183 14.6016 12.0537 -0.237105 0.0886698 -0.0341524 0 -0.323105 0.0350739 
98 2 0 1 1.63846 3.34702 14.4672 11.7366 -0.318368 -1.83653 -1.9429 0.247072 -0.026238 0.0194512 
480 2 0 -1 2.05469 2.98411 10.6593 12.4925 -0.32322 -1.64148 0.726508 -3.76827 -0.139375 0.0372676 
700 2 0 -1 1.75318 6.15544 10.1727 10.918 -3.77225 -2.24893 7.54967 0.825164 0.0156235 0.204771 
373 1 1 0 0 4.1739 11.9098 13.6022 -0.212644 0.0122215 0.152132 0 -0.356116 0.0368282 
749 1 1 0 0 2.8412 10.4168 12.9084 0.0935046 0.488613 -0.0294744 0 -0.332754 0.133504 
669 1 1 0 0 5.3994 14.7086 11.2148 0.176402 -0.0916984 -0.309016 0 -0.19987 0.0725787 
738 2 0 1 1.91349 2.13176 12.0081 10.5423 2.9212 0.501704 -1.87484 -7.48346 -0.0733682 0.144792 
671 1 1 0 0 3.7666 11.0873 11.252 -0.121938 0.244236 -0.406715 0 -0.180478 0.128979 
457 1 1 0 0 3.99191 13.0968 11.9805 0.274246 -0.113856 0.115815 0 -0.315175 0.0546084 
744 2 0 -1 1.89913 3.5473 14.2447 12.9939 1.31551 0.602546 -2.66632 4.05534 0.0601345 0.0574275 
764 2 0 -1 1.75276 5.7033 14.862 10.2298 -4.09771 4.63212 -1.60423 -5.25784 -0.0649856 0.164132 
849 1 1 0 0 0.354519 12.9593 11.5694 0.260917 0.300318 0.289946 0 -0.382168 0.130269 
506 2 0 1 1.48688 4.54594 12.4306 11.3306 2.88167 -2.54884 -3.38575 -3.45996 0.153039 0.0939715 
309 1 1 0 0 5.77893 12.2774 10.5218 -0.109079 0.0446882 0.0422518 0 -0.279283 0.00842912 
322 2 0 1 1.4641 2.58751 10.1595 12.9867 1.74229 0.932487 -0.396589 -2.39095 -0.0175246 0.0222643 
10 2 0 1 1.64998 4.8025 12.2008 13.8618 4.03342 -2.75791 6.79733 -8.0004 0.142871 0.31486 
45 1 1 0 0 3.89802 13.7951 15.7329 0.0476562 -0.260793 -0.0329041 0 -0.284123 0.0383633 
168 2 0 -1 1.45963 2.27342 10.7424 19.5802 0.931732 -1.27791 -2.16698 -3.69664 0.140648 0.0465182 
496 2 0 -1 3.03522 5.89498 12.8033 16.9056 -0.245145 -1.91068 -1.28603 -3.34079 0.0514309 0.0366243 
149 1 1 0 0 4.55335 11.5186 16.7742 0.194819 -0.119688 0.204823 0 -0.18949 0.0506548 
217 1 1 0 0 0.161963 11.2803 18.897 0.115514 -0.00488308 -0.300924 0 -0.404487 0.0558638 
266 2 0 1 2.46708 3.76223 13.0926 17.0032 -0.567465 -1.45051 -6.43122 -0.224293 -0.10314 0.116854 
163 1 1 0 0 2.71501 11.0721 18.6501 0.195906 0.125577 -0.0868432 0 -0.347461 0.0331619 
437 1 1 0 0 0.831301 13.4044 17.3765 -0.202727 0.545539 -0.17431 0 -0.474321 0.198408 
843 1 1 0 0 4.13355 12.6423 17.4785 0.118224 0.0342522 0.218847 0 -0.148586 0.0338896 
360 2 0 -1 1.73185 0.94011 13.3892 17.0935 -0.225939 2.54501 0.0556728 0.965124 0.094391 0.0192778 
289 1 1 0 0 2.17872 10.5117 19.7079 -0.043456 0.334767 0.130566 0 -0.563113 0.070422 
707 1 1 0 0 0.0173922 12.1976 15.8959 0.00258993 -0.298688 0.12792 0 -0.401594 0.0567575 
253 1 1 0 0 0.215551 14.8872 15.798 -0.185201 -0.601405 0.339532 0 -0.411974 0.274834 
855 1 1 0 0 4.91814 10.3034 18.9154 0.159607 0.181057 0.2846 0 -0.40144 0.0748558 
204 2 0 -1 2.46742 4.41901 12.4302 15.8541 -1.14594 6.38596 -0.141424 1.14575 -0.00765129 0.114919 
102 2 0 1 1.37489 2.81075 10.5012 19.5093 -2.07069 -4.31722 0.262657 0.521237 0.252859 0.0618583 
88 2 0 -1 1.70821 4.83308 10.1578 18.2014 0.122692 0.31598 1.60358 5.23289 0.112486 0.0619243 
74 2 0 1 1.355 0.0621361 12.0578 19.5348 -3.58785 1.52379 1.06076 0.330223 0.313197 0.0437338 
76 2 0 -1 1.38334 0.367776 18.4716 0.181179 6.86481 -2.25236 0.418069 0.509017 0.230028 0.140169 
257 1 1 0 0 3.56254 16.4978 0.20959 0.090184 0.0975256 -0.112318 0 -0.290417 0.0162662 
73 1 1 0 0 1.7185 15.8436 1.04202 0.210542 0.304891 -0.223229 0 -0.596333 0.100585 
3 1 1 0 0 2.18677 18.0663 4.85233 -0.127187 -0.257847 0.371843 0 -0.376219 0.118761 
188 2 0 -1 1.38043 2.00381 15.8171 0.379669 1.04192 0.761379 4.94377 -2.075 0.239854 0.0782208 
830 2 0 1 1.38122 1.71238 16.7576 0.993557 3.57815 4.22345 0.654555 2.6402 0.396196 0.0967837 
821 1 1 0 0 2.71163 15.5898 4.24836 0.0382849 0.421562 0.096142 0 -0.243637 0.101288 
229 1 1 0 0 0.475946 19.8414 3.38436 0.065045 -0.198256 -0.240859 0 -0.292031 0.054588 
285 1 1 0 0 4.55566 19.2017 1.58637 0.277552 0.235297 -0.0797979 0 -0.310103 0.0745948 
177 1 1 0 0 5.90314 19.5402 2.33697 0.0987598 -0.0951184 0.078351 0 -0.189743 0.0134065 
226 2 0 1 2.14302 4.67497 17.0967 4.27958 6.28232 -2.24687 1.98165 2.53654 0.0357198 0.142037 
797 1 1 0 0 5.06454 17.7705 4.45556 -0.138999 0.0745748 0.178973 0 -0.24764 0.030594 
684 2 0 -1 2.73978 6.00033 18.8046 4.70143 -5.2217 2.58933 2.15861 -1.32686 -0.00286183 0.106526 
593 1 1 0 0 1.79118 19.3288 0.316393 0.0754515 -0.0295901 -0.692728 0 -0.374143 0.261488 
184 2 0 -1 1.49098 4.91586 18.9434 2.19608 -3.64593 -1.50378 1.73238 -1.67207 0.0468954 0.0550675 
276 2 0 -1 1.42507 2.27606 17.5437 4.33034 -1.7605 -0.196947 1.77127 -3.12844 0.193794 0.0363059 
771 1 1 0 0 0.298017 18.2638 0.450097 0.167144 -0.0660184 -0.0428614 0 -0.517833 0.018348 
383 1 1 0 0 0.86514 18.4792 8.98128 -0.306424 0.327063 0.301868 0 -0.27837 0.15696 
352 2 0 -1 1.64353 4.44278 19.6908 9.02092 5.67415 1.97789 1.12051 -0.309935 -0.0557842 0.0998196 
144 2 0 -1 1.28197 5.70932 16.3923 6.59205 -0.50482 0.485861 -1.80223 -0.380336 0.158173 0.0102589 
756 2 0 -1 1.44575 0.0997691 18.8069 5.49973 1.32419 0.973138 -3.46288 -1.28881 0.0438792 0.042497 
651 1 1 0 0 2.65243 19.8952 9.58815 0.273717 0.21047 -0.225423 0 -0.179342 0.0914023 
661 1 1 0 0 4.20604 18.3501 9.80426 0.0978884 0.0471877 0.259567 0 -0.149878 0.0425654 
683 1 1 0 0 4.96482 17.026 6.41498 0.224378 -0.0661169 -0.198014 0 -0.264049 0.0504903 
35 1 1 0 0 6.19371 17.3962 9.06122 -0.240346 -0.269111 0.262167 0 -0.4512 0.106929 
782 2 0 1 1.92196 5.70911 15.7745 5.91926 -1.3812 2.78732 -1.03751 -2.50358 0.0175007 0.0412076 
627 1 1 0 0 6.28363 19.2604 5.89508 0.243478 0.0935333 -0.385117 0 -0.33222 0.116297 
129 1 1 0 0 5.82669 16.0287 6.43123 0.103932 0.342093 0.399018 0 -0.458231 0.154302 
857 1 1 0 0 1.73186 16.9732 8.22556 -0.0125535 0.153137 -0.365694 0 -0.104036 0.0845789 
263 1 1 0 0 4.62726 19.867 8.6324 -0.390257 0.12109 -0.0892675 0 -0.344754 0.0940353 
826 2 0 1 1.86506 0.178597 17.7565 9.1106 0.592394 -1.72484 1.79438 -1.06392 -0.0640901 0.0197176 
120 2 0 -1 1.57746 5.3719 17.2086 9.19951 -0.0665639 -0.626682 -0.0266551 -1.27374 0.0982205 0.00430546 
499 1 1 0 0 1.27505 18.6602 6.23642 0.320733 -0.165483 -0.160182 0 -0.279012 0.0838113 
848 2 0 -1 2.37645 1.93957 18.3436 8.98789 3.24121 -2.42959 -2.08303 3.96344 -0.0514955 0.0867363 
282 2 0 1 2.06156 1.34108 19.2467 5.96157 1.69612 2.19845 0.963935 -2.53998 -0.0182136 0.0359376 
446 2 0 1 2.05711 4.13156 19.4971 9.90731 5.50333 0.681123 2.99973 -3.59017 -0.0997133 0.131764 
34 2 0 1 2.36804 2.55593 16.5768 6.30635 -2.32944 3.35169 2.88742 -1.32638 -0.0763842 0.0701719 
670 2 0 1 2.06877 4.80601 19.9944 6.05192 -2.59882 -1.94816 1.69085 -1.98135 0.175403 0.0436027 
535 1 1 0 0 5.68982 16.7064 11.4233 0.0310725 -0.244605 -0.287647 0 -0.262916 0.0771591 
364 2 0 -1 1.42592 2.56362 15.871 11.2174 4.73255 2.02839 -2.95982 0.104136 -0.0436702 0.0940717 
293 1 1 0 0 2.87838 15.956 13.7054 -0.0663751 -0.138631 -0.163011 0 -0.313276 0.0269833 
95 1 1 0 0 5.58301 19.835 10.4486 -0.0603355 -0.181484 -0.256891 0 -0.207016 0.0551367 
674 2 0 1 2.05599 0.783149 19.1444 13.0168 3.68005 4.66378 6.2274 -0.794242 0.0885191 0.198775 
155 1 1 0 0 1.12963 16.0207 10.7264 0.180308 0.0679975 -0.258946 0 -0.132987 0.0560065 
713 1 1 0 0 1.81748 19.0061 13.7267 0.118277 -0.106934 0.199827 0 -0.376008 0.0351317 
291 1 1 0 0 0.592118 17.7365 14.5574 0.163525 0.132227 -0.24269 0 -0.254022 0.055434 
603 1 1 0 0 6.5396 18.8152 13.002 0.554105 0.0690091 0.256615 0 -0.31688 0.203005 
371 1 1 0 0 3.76382 18.2573 11.8198 -0.0519133 0.0365434 0.234801 0 -0.113461 0.0318025 
416 2 0 -1 1.4988 5.68823 17.5053 12.1465 0.734961 -1.7164 3.93865 -4.21207 0.0934905 0.0861398 
190 2 0 1 1.96999 1.06962 15.6361 13.6737 0.455223 0.431139 7.39962 -3.28977 0.0737642 0.16869 
214 2 0 1 2.78577 2.17414 18.3531 11.1868 2.88993 -2.49152 -0.420239 3.90679 -0.0384301 0.0698157 
439 1 1 0 0 2.79135 15.7296 10.7671 -0.106281 0.00639519 0.0401886 0 -0.201704 0.00696219 
500 2 0 -1 2.52261 0.526413 18.7373 14.5147 0.41601 -5.41968 -0.112244 1.42291 0.168629 0.082865 
8 2 0 -1 2.2577 1.92521 19.697 13.2192 1.96342 2.80025 -1.01691 -1.12216 0.0443928 0.0364633 
863 1 1 0 0 1.4722 19.9167 11.3195 0.158579 0.00184716 0.390295 0 -0.232449 0.0954054 
842 2 0 1 1.86102 5.06827 19.4146 19.8223 -2.77779 3.40493 6.6462 -1.24775 0.0452607 0.172383 
369 1 1 0 0 1.55385 19.5847 16.7592 0.0128726 -0.202042 -0.274815 0 -0.428787 0.0626302 
509 1 1 0 0 5.54143 19.0998 19.9073 -0.116077 -0.012136 0.271759 0 -0.317904 0.0470218 
143 1 1 0 0 6.31727 19.3523 16.342 0.00110448 0.142847 -0.150087 0 -0.374822 0.0230784 
647 1 1 0 0 4.23717 17.4537 16.8684 0.301041 -0.465514 -0.0614924 0 -0.429733 0.167238 
825 1 1 0 0 3.9186 15.8285 15.6536 -0.311736 0.167295 0.0353792 0 -0.392236 0.0679567 
224 2 0 -1 1.64264 3.85668 18.7735 19.0044 -7.03109 -1.03239 -5.98819 -0.711481 0.243373 0.231287 
225 1 1 0 0 1.68478 15.3169 19.7918 -0.135604 -0.0335699 -0.243695 0 -0.513263 0.0424142 
563 1 1 0 0 3.92248 19.5502 18.0355 -0.163506 0.0148953 0.134926 0 -0.376239 0.0242764 
543 1 1 0 0 4.10958 15.7144 18.6324 -0.287992 -0.0636899 -0.0741601 0 -0.399718 0.0497211 
206 2 0 1 1.79056 5.37989 19.2547 16.902 -2.28213 -2.78076 -0.157152 0.515519 0.135822 0.0351029 
605 1 1 0 0 0.111335 18.3176 16.0336 -0.12004 0.127459 -0.17097 0 -0.318699 0.0321919 
194 2 0 1 2.21872 1.51548 19.4828 16.3933 -0.342469 -4.33602 0.646161 4.61234 0.122735 0.0941015 
520 2 0 -1 2.50639 4.80402 18.1179 15.6073 1.10302 0.543923 1.88407 0.46595 0.148171 0.0139322 
106 2 0 1 2.02217 3.15107 16.4259 15.9372 3.50441 1.14368 -1.6393 3.74069 0.0849883 0.0713822 
216 2 0 -1 1.66518 3.8009 16.4159 18.3406 -2.33042 8.40128 -1.2721 1.34695 0.191306 0.210625 
292 2 0 -1 1.67003 0.107694 16.054 17.7959 -2.09223 -0.00111009 -2.04918 -1.26331 0.197966 0.0260604 
42 2 0 1 2.31057 6.25101 15.9642 18.5809 -2.61272 -4.09131 4.32678 -4.75026 -0.0151411 0.157879 
804 2 0 -1 2.21528 3.28996 15.7929 15.1749 3.53829 -2.81345 1.66474 2.4126 0.107843 0.0735183 
795 1 1 0 0 10.4371 4.4394 3.05683 0.351142 0.399891 -0.122256 0 -0.228849 0.160277 
460 2 0 -1 2.3465 7.04017 1.74279 0.233279 -2.34357 -0.23485 0.822622 3.20659 -0.160234 0.037159 
704 2 0 -1 1.92931 10.9431 1.98168 2.14604 -1.15135 5.13156 -3.26076 -0.941362 0.0282462 0.103873 
211 1 1 0 0 12.0421 4.65302 2.53969 0.0964438 -0.31677 -0.0167569 0 -0.275104 0.0590908 
323 1 1 0 0 10.0737 1.1552 3.20763 0.122618 0.115971 -0.00764067 0 -0.159561 0.0153433 
722 2 0 1 1.78152 12.3389 1.51678 3.00995 -0.20411 1.95123 0.506365 1.55182 0.163654 0.0157626 
340 2 0 -1 1.86844 12.7228 0.342868 1.60684 -1.60854 -3.95172 1.95533 -2.96413 0.193469 0.0763036 
631 1 1 0 0 12.6375 1.10083 1.77229 0.217342 0.183904 -0.0945551 0 -0.473941 0.0483792 
245 1 1 0 0 10.4161 3.86647 0.722247 0.159816 -0.112318 0.0832813 0 -0.142222 0.0242394 
423 1 1 0 0 8.81495 4.61127 2.50454 0.239477 -0.127602 -0.0304775 0 -0.316187 0.0400802 
495 1 1 0 0 12.3108 1.10049 3.23914 -0.150175 -0.315111 0.200327 0 -0.381554 0.0870719 
634 2 0 1 1.86657 12.1542 1.42978 1.22811 0.466981 -0.76137 -2.62432 -0.609041 0.101602 0.0212328 
851 1 1 0 0 10.6918 1.74042 0.566174 -0.0725432 0.302926 0.0704259 0 -0.209566 0.0548231 
625 1 1 0 0 6.84019 4.97607 3.00827 0.195254 -0.38033 0.0298659 0 -0.364406 0.0987309 
742 2 0 1 1.8721 10.4556 4.35973 2.45 -1.37469 -3.53402 -4.02695 -0.300181 -0.100441 0.0817605 
590 2 0 1 2.25378 8.96764 0.910566 4.71648 -4.63156 1.4999 0.450315 4.2813 -0.0322161 0.100394 
4 2 0 -1 1.67508 13.0644 1.32763 3.89965 -1.70014 -0.828019 -0.385967 0.129248 0.0786419 0.00996604 
313 1 1 0 0 7.5197 1.88436 0.252998 0.159185 -0.0478557 0.527542 0 -0.183252 0.164454 
52 2 0 -1 1.88951 7.7157 4.56932 2.23477 -0.966569 1.00189 1.33611 -2.91939 0.00335983 0.0269719 
57 1 1 0 0 10.3059 2.15206 7.42684 -0.00260945 0.205604 0.154613 0 -0.298152 0.0355779 
853 1 1 0 0 11.2377 2.3085 6.20528 -0.131009 -0.381156 -0.0976164 0 -0.249388 0.0924441 
828 2 0 -1 1.56291 10.7739 2.09556 6.80428 0.494352 3.33055 -1.59726 -4.81488 -0.133955 0.0833938 
784 2 0 -1 1.7065 7.5417 4.98702 6.50695 0.239346 3.95666 -0.723482 -1.02533 -0.0593309 0.0453943 
227 1 1 0 0 8.09977 4.21061 5.74431 0.112616 0.270007 -0.29193 0 -0.258376 0.0918187 
137 1 1 0 0 8.75661 0.254412 6.63548 -0.0952453 0.018906 0.119731 0 -0.252295 0.0127747 
729 1 1 0 0 7.00665 0.185191 8.5503 -0.0346639 -0.097147 0.0761381 0 -0.445672 0.00883529 
767 1 1 0 0 13.1246 3.51593 8.19831 -0.0470784 -0.087082 -0.255012 0 -0.313369 0.0402253 
445 1 1 0 0 7.46768 2.16467 5.91586 -0.434419 -0.400379 0.299295 0 -0.253291 0.235771 
408 2 0 -1 1.74198 7.0169 1.25494 6.72737 0.0163693 1.4387 1.8238 -1.57762 0.114707 0.0193664 
93 1 1 0 0 10.2618 3.5405 6.15193 0.0891414 0.457116 -0.18536 0 -0.119365 0.135065 
47 1 1 0 0 7.33124 4.81938 7.12428 -0.52332 -0.136381 -0.183137 0 -0.317758 0.175244 
394 2 0 1 1.56835 10.6517 2.23026 6.71741 -2.43737 3.97577 -1.06772 0.272894 -0.111484 0.061177 
540 2 0 -1 1.50654 10.6702 2.12638 9.51856 -1.21134 0.235148 3.91933 -5.6457 0.00352042 0.108762 
187 1 1 0 0 11.0947 2.12189 9.33541 0.311955 -0.00210176 0.213368 0 -0.303295 0.0767873 
614 2 0 1 2.04155 7.93375 3.99792 6.43791 -3.18141 0.343976 -2.58651 9.07587 -0.05935 0.20987 