ITEM: TIMESTEP
0
ITEM: NUMBER OF ATOMS
864
ITEM: BOX BOUNDS pp pp pp
0.0000000000000000e+00 2.0147801999999999e+01
0.0000000000000000e+00 2.0147801999999999e+01
0.0000000000000000e+00 2.0147801999999999e+01
ITEM: ATOMS id type q c_1a[1] c_1a[2] x y z vx vy vz c_1a[3] c_peatom c_keatom 
5 1 1 0 0 9.577 4.0211 1.5208 -0.121197 -0.078796 -0.091496 0 -0.366296 0.0157336 
7 2 0 1 1.86 10.0739 4.0296 2.0148 -0.121197 -0.078796 -0.091496 0 0.284993 7.80439e-05 
8 2 0 -1 1.86 10.0739 4.0296 2.0148 -0.121197 -0.078796 -0.091496 0 0.284993 7.80439e-05 
33 1 1 0 0 3.6662 7.7124 3.5409 0.131281 0.043497 0.056921 0 -0.419916 0.0120233 
34 1 1 0 0 4.3929 8.4058 4.5182 0.131281 0.043497 0.056921 0 -0.397767 0.0120233 
35 2 0 1 1.86 4.0296 8.0591 4.0296 0.131281 0.043497 0.056921 0 0.171277 5.96392e-05 
36 2 0 -1 1.86 4.0296 8.0591 4.0296 0.131281 0.043497 0.056921 0 0.171277 5.96392e-05 
133 1 1 0 0 10.0606 9.3847 3.9038 -0.006416 -0.104454 -0.093673 0 -0.44944 0.010604 
135 2 0 1 1.86 10.0739 10.0739 4.0296 -0.006416 -0.104454 -0.093673 0 0.151864 5.25992e-05 
136 2 0 -1 1.86 10.0739 10.0739 4.0296 -0.006416 -0.104454 -0.093673 0 0.151864 5.25992e-05 
185 1 1 0 0 5.6089 1.8098 3.5203 0.030672 0.007926 0.044454 0 -0.26533 0.00160177 
186 1 1 0 0 6.4798 2.2197 4.5389 0.030672 0.007926 0.044454 0 -0.343674 0.00160177 
187 2 0 1 1.86 6.0443 2.0148 4.0296 0.030672 0.007926 0.044454 0 0.108196 7.9453e-06 
188 2 0 -1 1.86 6.0443 2.0148 4.0296 0.030672 0.007926 0.044454 0 0.108196 7.9453e-06 
189 1 1 0 0 5.6495 3.5091 3.7762 -0.030672 -0.007926 -0.044454 0 -0.355598 0.00160177 
190 1 1 0 0 6.4392 4.55 4.2829 -0.030672 -0.007926 -0.044454 0 -0.400354 0.00160177 
191 2 0 1 1.86 6.0443 4.0296 4.0296 -0.030672 -0.007926 -0.044454 0 0.252328 7.9453e-06 
192 2 0 -1 1.86 6.0443 4.0296 4.0296 -0.030672 -0.007926 -0.044454 0 0.252328 7.9453e-06 
233 1 1 0 0 5.6322 5.6586 3.6144 0.06543 0.015001 0.055793 0 -0.345482 0.0040956 
234 1 1 0 0 6.4565 6.4301 4.4447 0.06543 0.015001 0.055793 0 -0.383223 0.0040956 
235 2 0 1 1.86 6.0443 6.0443 4.0296 0.06543 0.015001 0.055793 0 0.254396 2.03155e-05 
236 2 0 -1 1.86 6.0443 6.0443 4.0296 0.06543 0.015001 0.055793 0 0.254396 2.03155e-05 
413 1 1 0 0 5.8295 5.8463 1.3779 -0.102771 -0.013041 -0.055092 0 -0.390539 0.00740052 
414 1 1 0 0 6.2592 6.2424 2.6517 -0.102771 -0.013041 -0.055092 0 -0.375057 0.00740052 
415 2 0 1 1.86 6.0443 6.0443 2.0148 -0.102771 -0.013041 -0.055092 0 0.216967 3.6709e-05 
416 2 0 -1 1.86 6.0443 6.0443 2.0148 -0.102771 -0.013041 -0.055092 0 0.216967 3.6709e-05 
477 1 1 0 0 7.9634 9.684 3.4552 -0.03451 -0.028672 -0.007839 0 -0.393984 0.00111514 
479 2 0 1 1.86 8.0591 10.0739 4.0296 -0.03451 -0.028672 -0.007839 0 0.180323 5.53144e-06 
480 2 0 -1 1.86 8.0591 10.0739 4.0296 -0.03451 -0.028672 -0.007839 0 0.180323 5.53144e-06 
481 1 1 0 0 3.3505 1.8803 3.9208 0.0315 0.102506 0.117512 0 -0.369285 0.0136048 
482 1 1 0 0 4.7086 2.1493 4.1383 0.0315 0.102506 0.117512 0 -0.282402 0.0136048 
483 2 0 1 1.86 4.0296 2.0148 4.0296 0.0315 0.102506 0.117512 0 0.096962 6.74842e-05 
484 2 0 -1 1.86 4.0296 2.0148 4.0296 0.0315 0.102506 0.117512 0 0.096962 6.74842e-05 
493 1 1 0 0 7.6984 9.5073 1.8153 -0.024402 -0.065171 -0.060364 0 -0.351681 0.00456195 
495 2 0 1 1.86 8.0591 10.0739 2.0148 -0.024402 -0.065171 -0.060364 0 0.0826657 2.26287e-05 
496 2 0 -1 1.86 8.0591 10.0739 2.0148 -0.024402 -0.065171 -0.060364 0 0.0826657 2.26287e-05 
573 1 1 0 0 1.6319 1.6808 1.5323 -0.013837 -0.017161 -0.028882 0 -0.38075 0.00070964 
574 1 1 0 0 2.3977 2.3488 2.4973 -0.013837 -0.017161 -0.028882 0 -0.354252 0.00070964 
575 2 0 1 1.86 2.0148 2.0148 2.0148 -0.013837 -0.017161 -0.028882 0 -0.0360933 3.52004e-06 
576 2 0 -1 1.86 2.0148 2.0148 2.0148 -0.013837 -0.017161 -0.028882 0 -0.0360933 3.52004e-06 
621 1 1 0 0 5.6169 7.6394 1.6513 -0.088171 -0.079767 -0.015282 0 -0.416345 0.00772487 
622 1 1 0 0 6.4718 8.4788 2.3783 -0.088171 -0.079767 -0.015282 0 -0.383002 0.00772487 
623 2 0 1 1.86 6.0443 8.0591 2.0148 -0.088171 -0.079767 -0.015282 0 0.136128 3.83178e-05 
624 2 0 -1 1.86 6.0443 8.0591 2.0148 -0.088171 -0.079767 -0.015282 0 0.136128 3.83178e-05 
745 1 1 0 0 9.875 1.492 1.5927 0.045596 0.031302 0.045507 0 -0.371738 0.00275748 
747 2 0 1 1.86 10.0739 2.0148 2.0148 0.045596 0.031302 0.045507 0 0.198 1.3678e-05 
748 2 0 -1 1.86 10.0739 2.0148 2.0148 0.045596 0.031302 0.045507 0 0.198 1.3678e-05 
761 1 1 0 0 7.5561 3.6536 1.7038 0.058352 0.146062 0.001954 0 -0.416986 0.0133006 
762 1 1 0 0 8.5621 4.4055 2.3257 0.058352 0.146062 0.001954 0 -0.379862 0.0133006 
763 2 0 1 1.86 8.0591 4.0296 2.0148 0.058352 0.146062 0.001954 0 0.147311 6.59752e-05 
764 2 0 -1 1.86 8.0591 4.0296 2.0148 0.058352 0.146062 0.001954 0 0.147311 6.59752e-05 
765 1 1 0 0 3.3987 3.8588 1.7621 -0.058352 -0.146062 -0.001954 0 -0.387565 0.0133006 
766 1 1 0 0 4.6604 4.2003 2.2674 -0.058352 -0.146062 -0.001954 0 -0.387479 0.0133006 
767 2 0 1 1.86 4.0296 4.0296 2.0148 -0.058352 -0.146062 -0.001954 0 0.0591746 6.59752e-05 
768 2 0 -1 1.86 4.0296 4.0296 2.0148 -0.058352 -0.146062 -0.001954 0 0.0591746 6.59752e-05 
17 1 1 0 0 3.4832 7.9005 5.6353 0.001804 0.052433 0.031927 0 -0.34244 0.00202754 
18 1 1 0 0 4.5759 8.2177 6.4534 0.001804 0.052433 0.031927 0 -0.251385 0.00202754 
19 2 0 1 1.86 4.0296 8.0591 6.0443 0.001804 0.052433 0.031927 0 0.168047 1.00573e-05 
20 2 0 -1 1.86 4.0296 8.0591 6.0443 0.001804 0.052433 0.031927 0 0.168047 1.00573e-05 
37 1 1 0 0 7.3845 8.0532 7.8698 -0.131281 -0.043497 -0.056921 0 -0.403626 0.0120233 
38 1 1 0 0 8.7338 8.0651 8.2484 -0.131281 -0.043497 -0.056921 0 -0.439372 0.0120233 
39 2 0 1 1.86 8.0591 8.0591 8.0591 -0.131281 -0.043497 -0.056921 0 0.185411 5.96392e-05 
40 2 0 -1 1.86 8.0591 8.0591 8.0591 -0.131281 -0.043497 -0.056921 0 0.185411 5.96392e-05 
153 1 1 0 0 7.447 10.0598 9.7331 0.116774 0.022962 0.061565 0 -0.411656 0.00965104 
155 2 0 1 1.86 8.0591 10.0739 10.0739 0.116774 0.022962 0.061565 0 0.353389 4.78722e-05 
156 2 0 -1 1.86 8.0591 10.0739 10.0739 0.116774 0.022962 0.061565 0 0.353389 4.78722e-05 
173 1 1 0 0 1.8046 5.7818 9.4592 -0.047878 -0.046328 -0.017719 0 -0.350386 0.00255474 
175 2 0 1 1.86 2.0148 6.0443 10.0739 -0.047878 -0.046328 -0.017719 0 0.138434 1.26723e-05 
176 2 0 -1 1.86 2.0148 6.0443 10.0739 -0.047878 -0.046328 -0.017719 0 0.138434 1.26723e-05 
201 1 1 0 0 3.9179 5.3898 5.8205 0.043604 0.062462 0.002395 0 -0.433268 0.0031224 
202 1 1 0 0 4.1412 6.6989 6.2681 0.043604 0.062462 0.002395 0 -0.364218 0.0031224 
203 2 0 1 1.86 4.0296 6.0443 6.0443 0.043604 0.062462 0.002395 0 0.238481 1.54881e-05 
204 2 0 -1 1.86 4.0296 6.0443 6.0443 0.043604 0.062462 0.002395 0 0.238481 1.54881e-05 
213 1 1 0 0 9.8682 5.6017 5.5416 -0.094494 -0.080012 -0.050096 0 -0.381158 0.00959028 
215 2 0 1 1.86 10.0739 6.0443 6.0443 -0.094494 -0.080012 -0.050096 0 0.230411 4.75708e-05 
216 2 0 -1 1.86 10.0739 6.0443 6.0443 -0.094494 -0.080012 -0.050096 0 0.230411 4.75708e-05 
217 1 1 0 0 7.7459 7.4651 9.8738 0.029584 0.008908 0.025091 0 -0.428316 0.00085155 
219 2 0 1 1.86 8.0591 8.0591 10.0739 0.029584 0.008908 0.025091 0 0.368278 4.22396e-06 
220 2 0 -1 1.86 8.0591 8.0591 10.0739 0.029584 0.008908 0.025091 0 0.368278 4.22396e-06 
409 1 1 0 0 1.5214 3.7812 5.6132 0.102771 0.013041 0.055092 0 -0.393013 0.00740052 
410 1 1 0 0 2.5082 4.2779 6.4755 0.102771 0.013041 0.055092 0 -0.393071 0.00740052 
411 2 0 1 1.86 2.0148 4.0296 6.0443 0.102771 0.013041 0.055092 0 0.0248492 3.6709e-05 
412 2 0 -1 1.86 2.0148 4.0296 6.0443 0.102771 0.013041 0.055092 0 0.0248492 3.6709e-05 
465 1 1 0 0 3.6663 3.5102 7.7603 0.040867 0.092113 0.056209 0 -0.399875 0.00715717 
466 1 1 0 0 4.3928 4.5489 8.3579 0.040867 0.092113 0.056209 0 -0.415812 0.00715717 
467 2 0 1 1.86 4.0296 4.0296 8.0591 0.040867 0.092113 0.056209 0 0.0479759 3.55018e-05 
468 2 0 -1 1.86 4.0296 4.0296 8.0591 0.040867 0.092113 0.056209 0 0.0479759 3.55018e-05 
533 1 1 0 0 10.0367 5.6758 9.4791 -0.105477 -0.005066 -0.093817 0 -0.39864 0.0107256 
535 2 0 1 1.86 10.0739 6.0443 10.0739 -0.105477 -0.005066 -0.093817 0 0.189953 5.32025e-05 
536 2 0 -1 1.86 10.0739 6.0443 10.0739 -0.105477 -0.005066 -0.093817 0 0.189953 5.32025e-05 
541 1 1 0 0 1.4646 5.8948 7.6518 -0.074501 -0.123208 -0.069042 0 -0.390112 0.0137062 
542 1 1 0 0 2.565 6.1939 8.4664 -0.074501 -0.123208 -0.069042 0 -0.357071 0.0137062 
543 2 0 1 1.86 2.0148 6.0443 8.0591 -0.074501 -0.123208 -0.069042 0 0.114049 6.79871e-05 
544 2 0 -1 1.86 2.0148 6.0443 8.0591 -0.074501 -0.123208 -0.069042 0 0.114049 6.79871e-05 
581 1 1 0 0 7.54 1.6426 5.7563 -0.065077 -0.027917 -0.061738 0 -0.372161 0.00474441 
582 1 1 0 0 8.5783 2.387 6.3324 -0.065077 -0.027917 -0.061738 0 -0.392051 0.00474441 
583 2 0 1 1.86 8.0591 2.0148 6.0443 -0.065077 -0.027917 -0.061738 0 -0.0425186 2.35338e-05 
584 2 0 -1 1.86 8.0591 2.0148 6.0443 -0.065077 -0.027917 -0.061738 0 -0.0425186 2.35338e-05 
661 1 1 0 0 9.5356 7.8555 5.6446 -0.077287 -0.124931 -0.072362 0 -0.418237 0.0144157 
663 2 0 1 1.86 10.0739 8.0591 6.0443 -0.077287 -0.124931 -0.072362 0 0.196096 7.15065e-05 
664 2 0 -1 1.86 10.0739 8.0591 6.0443 -0.077287 -0.124931 -0.072362 0 0.196096 7.15065e-05 
685 1 1 0 0 5.455 7.7013 5.9193 -0.122154 -0.020401 -0.117871 0 -0.267783 0.0157134 
686 1 1 0 0 6.6337 8.4169 6.1694 -0.122154 -0.020401 -0.117871 0 -0.360642 0.0157134 
687 2 0 1 1.86 6.0443 8.0591 6.0443 -0.122154 -0.020401 -0.117871 0 0.109747 7.79434e-05 
688 2 0 -1 1.86 6.0443 8.0591 6.0443 -0.122154 -0.020401 -0.117871 0 0.109747 7.79434e-05 
725 1 1 0 0 9.5845 5.5434 8.0359 -0.063395 -0.072386 -0.022589 0 -0.363292 0.00525131 
727 2 0 1 1.86 10.0739 6.0443 8.0591 -0.063395 -0.072386 -0.022589 0 0.192789 2.60482e-05 
728 2 0 -1 1.86 10.0739 6.0443 8.0591 -0.063395 -0.072386 -0.022589 0 0.192789 2.60482e-05 
789 1 1 0 0 5.7333 1.4684 9.7646 -0.027945 -0.101287 -0.09658 0 -0.404057 0.0109487 
791 2 0 1 1.86 6.0443 2.0148 10.0739 -0.027945 -0.101287 -0.09658 0 0.00107101 5.4309e-05 
792 2 0 -1 1.86 6.0443 2.0148 10.0739 -0.027945 -0.101287 -0.09658 0 0.00107101 5.4309e-05 
805 1 1 0 0 1.3271 9.9505 10.0205 -0.045328 -0.087668 -0.013397 0 -0.392407 0.00533241 
807 2 0 1 1.86 2.0148 10.0739 10.0739 -0.045328 -0.087668 -0.013397 0 0.0896946 2.64504e-05 
808 2 0 -1 1.86 2.0148 10.0739 10.0739 -0.045328 -0.087668 -0.013397 0 0.0896946 2.64504e-05 
81 1 1 0 0 5.9053 5.5441 13.6329 0.018074 0.074801 0.072406 0 -0.406244 0.0060015 
82 1 1 0 0 6.1834 6.5446 14.574 0.018074 0.074801 0.072406 0 -0.421981 0.0060015 
83 2 0 1 1.86 6.0443 6.0443 14.1035 0.018074 0.074801 0.072406 0 0.166608 2.97693e-05 
84 2 0 -1 1.86 6.0443 6.0443 14.1035 0.018074 0.074801 0.072406 0 0.166608 2.97693e-05 
157 1 1 0 0 3.6616 9.5127 11.8872 -0.116774 -0.022962 -0.061565 0 -0.35302 0.00965104 
159 2 0 1 1.86 4.0296 10.0739 12.0887 -0.116774 -0.022962 -0.061565 0 0.364786 4.78722e-05 
160 2 0 -1 1.86 4.0296 10.0739 12.0887 -0.116774 -0.022962 -0.061565 0 0.364786 4.78722e-05 
174 1 1 0 0 2.2249 6.3069 10.6886 -0.047878 -0.046328 -0.017719 0 -0.274183 0.00255474 
181 1 1 0 0 1.6357 6.0175 11.4999 -0.009796 -0.082194 -0.089914 0 -0.283907 0.00802907 
182 1 1 0 0 2.3938 6.0712 12.6774 -0.009796 -0.082194 -0.089914 0 -0.302865 0.00802907 
183 2 0 1 1.86 2.0148 6.0443 12.0887 -0.009796 -0.082194 -0.089914 0 0.250249 3.98267e-05 
184 2 0 -1 1.86 2.0148 6.0443 12.0887 -0.009796 -0.082194 -0.089914 0 0.250249 3.98267e-05 
218 1 1 0 0 8.3723 8.6532 10.274 0.029584 0.008908 0.025091 0 -0.400042 0.00085155 
245 1 1 0 0 3.5913 7.8684 11.5762 -0.069423 -0.077726 -0.089009 0 -0.28895 0.0100971 
246 1 1 0 0 4.4678 8.2498 12.6011 -0.069423 -0.077726 -0.089009 0 -0.343984 0.0100971 
247 2 0 1 1.86 4.0296 8.0591 12.0887 -0.069423 -0.077726 -0.089009 0 0.353047 5.00849e-05 
248 2 0 -1 1.86 4.0296 8.0591 12.0887 -0.069423 -0.077726 -0.089009 0 0.353047 5.00849e-05 
265 1 1 0 0 1.3807 7.7609 14.0969 0.035972 0.069936 0.000831 0 -0.379979 0.00332515 
266 1 1 0 0 2.6488 8.3573 14.11 0.035972 0.069936 0.000831 0 -0.438669 0.00332515 
267 2 0 1 1.86 2.0148 8.0591 14.1035 0.035972 0.069936 0.000831 0 0.369572 1.64938e-05 
268 2 0 -1 1.86 2.0148 8.0591 14.1035 0.035972 0.069936 0.000831 0 0.369572 1.64938e-05 
273 1 1 0 0 5.8576 3.3655 11.9654 0.134118 0.010259 0.100035 0 -0.374601 0.0151052 
274 1 1 0 0 6.2311 4.6936 12.212 0.134118 0.010259 0.100035 0 -0.356156 0.0151052 
275 2 0 1 1.86 6.0443 4.0296 12.0887 0.134118 0.010259 0.100035 0 0.143264 7.49264e-05 
276 2 0 -1 1.86 6.0443 4.0296 12.0887 0.134118 0.010259 0.100035 0 0.143264 7.49264e-05 
349 1 1 0 0 1.9932 5.6029 13.5597 -0.094531 -0.045127 -0.021354 0 -0.316765 0.00614344 
350 1 1 0 0 2.0363 6.4858 14.6472 -0.094531 -0.045127 -0.021354 0 -0.386741 0.00614344 
351 2 0 1 1.86 2.0148 6.0443 14.1035 -0.094531 -0.045127 -0.021354 0 0.199686 3.04734e-05 
352 2 0 -1 1.86 2.0148 6.0443 14.1035 -0.094531 -0.045127 -0.021354 0 0.199686 3.04734e-05 
369 1 1 0 0 7.8596 1.7998 13.4671 0.039528 0.020677 0.003005 0 -0.375743 0.00107458 
370 1 1 0 0 8.2586 2.2298 14.7398 0.039528 0.020677 0.003005 0 -0.343058 0.00107458 
371 2 0 1 1.86 8.0591 2.0148 14.1035 0.039528 0.020677 0.003005 0 0.14097 5.33028e-06 
372 2 0 -1 1.86 8.0591 2.0148 14.1035 0.039528 0.020677 0.003005 0 0.14097 5.33028e-06 
381 1 1 0 0 9.6995 1.8417 13.537 -0.106714 -0.081422 -0.052225 0 -0.419213 0.0111515 
383 2 0 1 1.86 10.0739 2.0148 14.1035 -0.106714 -0.081422 -0.052225 0 0.20612 5.53148e-05 
384 2 0 -1 1.86 10.0739 2.0148 14.1035 -0.106714 -0.081422 -0.052225 0 0.20612 5.53148e-05 
421 1 1 0 0 3.969 5.3463 12.0817 -0.090227 -0.080342 -0.050281 0 -0.37588 0.00920501 
422 1 1 0 0 4.0901 6.7424 12.0956 -0.090227 -0.080342 -0.050281 0 -0.327904 0.00920501 
423 2 0 1 1.86 4.0296 6.0443 12.0887 -0.090227 -0.080342 -0.050281 0 0.35478 4.56598e-05 
424 2 0 -1 1.86 4.0296 6.0443 12.0887 -0.090227 -0.080342 -0.050281 0 0.35478 4.56598e-05 
513 1 1 0 0 5.4613 5.8859 11.7337 0.061134 0.075168 0.051789 0 -0.358444 0.00648809 
514 1 1 0 0 6.6273 6.2028 12.4436 0.061134 0.075168 0.051789 0 -0.382226 0.00648809 
515 2 0 1 1.86 6.0443 6.0443 12.0887 0.061134 0.075168 0.051789 0 0.367974 3.2183e-05 
516 2 0 -1 1.86 6.0443 6.0443 12.0887 0.061134 0.075168 0.051789 0 0.367974 3.2183e-05 
525 1 1 0 0 9.4381 9.8657 13.8952 -0.020703 -0.059723 -0.057307 0 -0.32249 0.00391314 
527 2 0 1 1.86 10.0739 10.0739 14.1035 -0.020703 -0.059723 -0.057307 0 0.278065 1.94104e-05 
528 2 0 -1 1.86 10.0739 10.0739 14.1035 -0.020703 -0.059723 -0.057307 0 0.278065 1.94104e-05 
569 1 1 0 0 7.7271 7.8141 11.5223 0.013837 0.017161 0.028882 0 -0.415879 0.00070964 
570 1 1 0 0 8.3911 8.3041 12.655 0.013837 0.017161 0.028882 0 -0.372571 0.00070964 
571 2 0 1 1.86 8.0591 8.0591 12.0887 0.013837 0.017161 0.028882 0 0.422847 3.52004e-06 
572 2 0 -1 1.86 8.0591 8.0591 12.0887 0.013837 0.017161 0.028882 0 0.422847 3.52004e-06 
609 1 1 0 0 1.5364 9.5879 11.9276 0.110066 0.127857 0.031554 0 -0.386897 0.015835 
611 2 0 1 1.86 2.0148 10.0739 12.0887 0.110066 0.127857 0.031554 0 0.316406 7.85466e-05 
612 2 0 -1 1.86 2.0148 10.0739 12.0887 0.110066 0.127857 0.031554 0 0.316406 7.85466e-05 
637 1 1 0 0 9.7128 5.4581 11.9584 -0.020741 -0.024708 -0.021634 0 -0.40124 0.000811008 
639 2 0 1 1.86 10.0739 6.0443 12.0887 -0.020741 -0.024708 -0.021634 0 0.12058 4.02286e-06 
640 2 0 -1 1.86 10.0739 6.0443 12.0887 -0.020741 -0.024708 -0.021634 0 0.12058 4.02286e-06 
653 1 1 0 0 5.3745 9.9059 11.9701 -0.038277 -0.069187 -0.048453 0 -0.366825 0.00462277 
655 2 0 1 1.86 6.0443 10.0739 12.0887 -0.038277 -0.069187 -0.048453 0 0.378864 2.29304e-05 
656 2 0 -1 1.86 6.0443 10.0739 12.0887 -0.038277 -0.069187 -0.048453 0 0.378864 2.29304e-05 
697 1 1 0 0 3.7333 1.6264 11.5863 0.015115 0.138061 0.050864 0 -0.407399 0.0117597 
698 1 1 0 0 4.3258 2.4031 12.5911 0.015115 0.138061 0.050864 0 -0.390468 0.0117597 
699 2 0 1 1.86 4.0296 2.0148 12.0887 0.015115 0.138061 0.050864 0 -0.00641356 5.8332e-05 
700 2 0 -1 1.86 4.0296 2.0148 12.0887 0.015115 0.138061 0.050864 0 -0.00641356 5.8332e-05 
781 1 1 0 0 1.5144 9.8354 13.6748 -0.005515 -0.005663 -0.003598 0 -0.432657 4.05478e-05 
783 2 0 1 1.86 2.0148 10.0739 14.1035 -0.005515 -0.005663 -0.003598 0 0.470598 2.0113e-07 
784 2 0 -1 1.86 2.0148 10.0739 14.1035 -0.005515 -0.005663 -0.003598 0 0.470598 2.0113e-07 
785 1 1 0 0 9.8116 7.6692 13.5837 0.027945 0.101287 0.09658 0 -0.369734 0.0109487 
787 2 0 1 1.86 10.0739 8.0591 14.1035 0.027945 0.101287 0.09658 0 0.267139 5.4309e-05 
788 2 0 -1 1.86 10.0739 8.0591 14.1035 0.027945 0.101287 0.09658 0 0.267139 5.4309e-05 
790 1 1 0 0 6.3554 2.5612 10.3832 -0.027945 -0.101287 -0.09658 0 -0.393525 0.0109487 
801 1 1 0 0 5.5311 7.8904 11.6425 0.045328 0.087668 0.013397 0 -0.396828 0.00533241 
802 1 1 0 0 6.5576 8.2279 12.5349 0.045328 0.087668 0.013397 0 -0.423137 0.00533241 
803 2 0 1 1.86 6.0443 8.0591 12.0887 0.045328 0.087668 0.013397 0 0.491444 2.64504e-05 
804 2 0 -1 1.86 6.0443 8.0591 12.0887 0.045328 0.087668 0.013397 0 0.491444 2.64504e-05 
813 1 1 0 0 7.4083 9.8947 11.9008 -0.06453 -0.036202 -0.040669 0 -0.225051 0.00383204 
815 2 0 1 1.86 8.0591 10.0739 12.0887 -0.06453 -0.036202 -0.040669 0 0.422014 1.90081e-05 
816 2 0 -1 1.86 8.0591 10.0739 12.0887 -0.06453 -0.036202 -0.040669 0 0.422014 1.90081e-05 
845 1 1 0 0 10.0229 9.4975 11.6935 -0.054144 -0.026581 -0.094655 0 -0.352887 0.00677192 
847 2 0 1 1.86 10.0739 10.0739 12.0887 -0.054144 -0.026581 -0.094655 0 0.258386 3.35909e-05 
848 2 0 -1 1.86 10.0739 10.0739 12.0887 -0.054144 -0.026581 -0.094655 0 0.258386 3.35909e-05 
13 1 1 0 0 7.6948 9.4759 18.1063 -0.024183 -0.085162 -0.020565 0 -0.421887 0.00444035 
15 2 0 1 1.86 8.0591 10.0739 18.133 -0.024183 -0.085162 -0.020565 0 0.12375 2.20255e-05 
16 2 0 -1 1.86 8.0591 10.0739 18.133 -0.024183 -0.085162 -0.020565 0 0.12375 2.20255e-05 
41 1 1 0 0 9.8584 9.8673 15.4843 0.060189 0.118687 0.067969 0 -0.358534 0.0120031 
43 2 0 1 1.86 10.0739 10.0739 16.1182 0.060189 0.118687 0.067969 0 0.313233 5.9539e-05 
44 2 0 -1 1.86 10.0739 10.0739 16.1182 0.060189 0.118687 0.067969 0 0.313233 5.9539e-05 
69 1 1 0 0 10.0302 9.5974 17.6212 -0.075832 -0.040215 -0.083683 0 -0.337568 0.00772494 
71 2 0 1 1.86 10.0739 10.0739 18.133 -0.075832 -0.040215 -0.083683 0 0.175375 3.83182e-05 
72 2 0 -1 1.86 10.0739 10.0739 18.133 -0.075832 -0.040215 -0.083683 0 0.175375 3.83182e-05 
89 1 1 0 0 1.7241 5.812 17.5393 0.03298 0.067837 0.061155 0 -0.413997 0.00506884 
90 1 1 0 0 2.3055 6.2767 18.7267 0.03298 0.067837 0.061155 0 -0.413121 0.00506884 
91 2 0 1 1.86 2.0148 6.0443 18.133 0.03298 0.067837 0.061155 0 0.0136322 2.5143e-05 
92 2 0 -1 1.86 2.0148 6.0443 18.133 0.03298 0.067837 0.061155 0 0.0136322 2.5143e-05 
121 1 1 0 0 1.4537 9.7574 15.8425 0.034803 0.028975 0.109109 0 -0.433676 0.00750185 
123 2 0 1 1.86 2.0148 10.0739 16.1182 0.034803 0.028975 0.109109 0 0.333288 3.72116e-05 
124 2 0 -1 1.86 2.0148 10.0739 16.1182 0.034803 0.028975 0.109109 0 0.333288 3.72116e-05 
365 1 1 0 0 7.8204 1.5756 15.6272 -0.088099 -0.00403 -0.078118 0 -0.321377 0.00746128 
366 1 1 0 0 8.2978 2.454 16.6093 -0.088099 -0.00403 -0.078118 0 -0.368246 0.00746128 
367 2 0 1 1.86 8.0591 2.0148 16.1182 -0.088099 -0.00403 -0.078118 0 0.127113 3.70103e-05 
368 2 0 -1 1.86 8.0591 2.0148 16.1182 -0.088099 -0.00403 -0.078118 0 0.127113 3.70103e-05 
461 1 1 0 0 1.4171 7.7266 15.9658 -0.056738 -0.048321 -0.0545 0 -0.378121 0.0045823 
462 1 1 0 0 2.6124 8.3916 16.2707 -0.056738 -0.048321 -0.0545 0 -0.378032 0.0045823 
463 2 0 1 1.86 2.0148 8.0591 16.1182 -0.056738 -0.048321 -0.0545 0 0.266421 2.27296e-05 
464 2 0 -1 1.86 2.0148 8.0591 16.1182 -0.056738 -0.048321 -0.0545 0 0.266421 2.27296e-05 
505 1 1 0 0 3.6443 9.5479 15.8616 0.111077 0.068707 0.049027 0 -0.340264 0.0104621 
507 2 0 1 1.86 4.0296 10.0739 16.1182 0.111077 0.068707 0.049027 0 0.172167 5.18951e-05 
508 2 0 -1 1.86 4.0296 10.0739 16.1182 0.111077 0.068707 0.049027 0 0.172167 5.18951e-05 
589 1 1 0 0 3.5988 3.5344 15.8728 -0.025937 -0.007156 -0.040648 0 -0.421034 0.00127733 
590 1 1 0 0 4.4603 4.5247 16.3637 -0.025937 -0.007156 -0.040648 0 -0.424804 0.00127733 
591 2 0 1 1.86 4.0296 4.0296 16.1182 -0.025937 -0.007156 -0.040648 0 -0.0248579 6.33596e-06 
592 2 0 -1 1.86 4.0296 4.0296 16.1182 -0.025937 -0.007156 -0.040648 0 -0.0248579 6.33596e-06 
617 1 1 0 0 3.7335 7.6249 17.6696 0.088171 0.079767 0.015282 0 -0.398914 0.00772487 
618 1 1 0 0 4.3256 8.4934 18.5964 0.088171 0.079767 0.015282 0 -0.416186 0.00772487 
619 2 0 1 1.86 4.0296 8.0591 18.133 0.088171 0.079767 0.015282 0 0.129273 3.83178e-05 
620 2 0 -1 1.86 4.0296 8.0591 18.133 0.088171 0.079767 0.015282 0 0.129273 3.83178e-05 
645 1 1 0 0 5.7072 7.7269 17.6163 -0.07041 -0.041963 -0.097855 0 -0.410912 0.00875891 
646 1 1 0 0 6.3815 8.3913 18.6497 -0.07041 -0.041963 -0.097855 0 -0.385775 0.00875891 
647 2 0 1 1.86 6.0443 8.0591 18.133 -0.07041 -0.041963 -0.097855 0 0.0957725 4.3447e-05 
648 2 0 -1 1.86 6.0443 8.0591 18.133 -0.07041 -0.041963 -0.097855 0 0.0957725 4.3447e-05 
729 1 1 0 0 9.7462 3.6008 17.6861 0.092528 0.094329 0.034255 0 -0.358584 0.0100161 
731 2 0 1 1.86 10.0739 4.0296 18.133 0.092528 0.094329 0.034255 0 0.0199155 4.96831e-05 
732 2 0 -1 1.86 10.0739 4.0296 18.133 0.092528 0.094329 0.034255 0 0.0199155 4.96831e-05 
769 1 1 0 0 9.7706 1.4579 15.8201 0.065883 0.02512 0.095181 0 -0.363815 0.0075424 
771 2 0 1 1.86 10.0739 2.0148 16.1182 0.065883 0.02512 0.095181 0 0.135429 3.74127e-05 
772 2 0 -1 1.86 10.0739 2.0148 16.1182 0.065883 0.02512 0.095181 0 0.135429 3.74127e-05 
817 1 1 0 0 7.5951 5.7695 17.6857 0.102597 0.060845 0.143081 0 -0.421784 0.0186533 
818 1 1 0 0 8.5232 6.3192 18.5804 0.102597 0.060845 0.143081 0 -0.425491 0.0186533 
819 2 0 1 1.86 8.0591 6.0443 18.133 0.102597 0.060845 0.143081 0 0.019244 9.25263e-05 
820 2 0 -1 1.86 8.0591 6.0443 18.133 0.102597 0.060845 0.143081 0 0.019244 9.25263e-05 
61 1 1 0 0 9.6738 14.0335 3.4586 -0.083338 -0.072372 -0.000146 0 -0.319505 0.00654897 
63 2 0 1 1.86 10.0739 14.1035 4.0296 -0.083338 -0.072372 -0.000146 0 0.102817 3.2485e-05 
64 2 0 -1 1.86 10.0739 14.1035 4.0296 -0.083338 -0.072372 -0.000146 0 0.102817 3.2485e-05 
73 1 1 0 0 9.5196 18.0679 1.5911 0.028203 0.06656 0.018885 0 -0.380066 0.00300077 
75 2 0 1 1.86 10.0739 18.133 2.0148 0.028203 0.06656 0.018885 0 0.0574947 1.48848e-05 
76 2 0 -1 1.86 10.0739 18.133 2.0148 0.028203 0.06656 0.018885 0 0.0574947 1.48848e-05 
321 1 1 0 0 5.4685 11.8779 3.6906 0.04424 0.020223 0.018696 0 -0.373183 0.00145982 
322 1 1 0 0 6.6202 12.2995 4.3685 0.04424 0.020223 0.018696 0 -0.385297 0.00145982 
323 2 0 1 1.86 6.0443 12.0887 4.0296 0.04424 0.020223 0.018696 0 0.0916629 7.24119e-06 
324 2 0 -1 1.86 6.0443 12.0887 4.0296 0.04424 0.020223 0.018696 0 0.0916629 7.24119e-06 
385 1 1 0 0 3.4884 15.8256 3.6941 0.092366 0.100572 0.029223 0 -0.39463 0.0104824 
386 1 1 0 0 4.5707 16.4109 4.365 0.092366 0.100572 0.029223 0 -0.396233 0.0104824 
387 2 0 1 1.86 4.0296 16.1182 4.0296 0.092366 0.100572 0.029223 0 0.153279 5.19959e-05 
388 2 0 -1 1.86 4.0296 16.1182 4.0296 0.092366 0.100572 0.029223 0 0.153279 5.19959e-05 
389 1 1 0 0 5.8633 13.4985 1.711 -0.092366 -0.100572 -0.029223 0 -0.373526 0.0104824 
390 1 1 0 0 6.2254 14.7084 2.3185 -0.092366 -0.100572 -0.029223 0 -0.387169 0.0104824 
391 2 0 1 1.86 6.0443 14.1035 2.0148 -0.092366 -0.100572 -0.029223 0 0.14425 5.19959e-05 
392 2 0 -1 1.86 6.0443 14.1035 2.0148 -0.092366 -0.100572 -0.029223 0 0.14425 5.19959e-05 
405 1 1 0 0 7.929 17.8138 3.4195 -0.155197 -0.003937 -0.026056 0 -0.365842 0.0133208 
406 1 1 0 0 8.1893 18.4522 4.6396 -0.155197 -0.003937 -0.026056 0 -0.423253 0.0133208 
407 2 0 1 1.86 8.0591 18.133 4.0296 -0.155197 -0.003937 -0.026056 0 0.187611 6.60756e-05 
408 2 0 -1 1.86 8.0591 18.133 4.0296 -0.155197 -0.003937 -0.026056 0 0.187611 6.60756e-05 
433 1 1 0 0 5.8598 13.4998 3.7253 0.008049 0.045118 0.072488 0 -0.393836 0.00395366 
434 1 1 0 0 6.2289 14.7071 4.3338 0.008049 0.045118 0.072488 0 -0.379209 0.00395366 
435 2 0 1 1.86 6.0443 14.1035 4.0296 0.008049 0.045118 0.072488 0 0.215301 1.96114e-05 
436 2 0 -1 1.86 6.0443 14.1035 4.0296 0.008049 0.045118 0.072488 0 0.215301 1.96114e-05 
441 1 1 0 0 1.5489 11.999 1.4991 0.0562 0.048156 0.089163 0 -0.405386 0.00721798 
442 1 1 0 0 2.4807 12.1784 2.5304 0.0562 0.048156 0.089163 0 -0.384236 0.00721798 
443 2 0 1 1.86 2.0148 12.0887 2.0148 0.0562 0.048156 0.089163 0 0.0244533 3.58034e-05 
444 2 0 -1 1.86 2.0148 12.0887 2.0148 0.0562 0.048156 0.089163 0 0.0244533 3.58034e-05 
453 1 1 0 0 7.5585 16.0774 3.5409 -0.088846 -0.145936 -0.028192 0 -0.324607 0.0161189 
454 1 1 0 0 8.5597 16.159 4.5182 -0.088846 -0.145936 -0.028192 0 -0.377449 0.0161189 
455 2 0 1 1.86 8.0591 16.1182 4.0296 -0.088846 -0.145936 -0.028192 0 0.250049 7.99548e-05 
456 2 0 -1 1.86 8.0591 16.1182 4.0296 -0.088846 -0.145936 -0.028192 0 0.250049 7.99548e-05 
478 1 1 0 0 8.1548 10.4638 4.6039 -0.03451 -0.028672 -0.007839 0 -0.41472 0.00111514 
485 1 1 0 0 1.5777 11.5447 3.9659 -0.0315 -0.102506 -0.117512 0 -0.362365 0.0136048 
486 1 1 0 0 2.4518 12.6327 4.0933 -0.0315 -0.102506 -0.117512 0 -0.356672 0.0136048 
487 2 0 1 1.86 2.0148 12.0887 4.0296 -0.0315 -0.102506 -0.117512 0 0.0828881 6.74842e-05 
488 2 0 -1 1.86 2.0148 12.0887 4.0296 -0.0315 -0.102506 -0.117512 0 0.0828881 6.74842e-05 
489 1 1 0 0 3.467 18.1226 1.5972 0.024402 0.065171 0.060364 0 -0.372968 0.00456195 
490 1 1 0 0 4.5921 18.1434 2.4324 0.024402 0.065171 0.060364 0 -0.379485 0.00456195 
491 2 0 1 1.86 4.0296 18.133 2.0148 0.024402 0.065171 0.060364 0 0.0366514 2.26287e-05 
492 2 0 -1 1.86 4.0296 18.133 2.0148 0.024402 0.065171 0.060364 0 0.0366514 2.26287e-05 
494 1 1 0 0 8.4199 10.6405 2.2142 -0.024402 -0.065171 -0.060364 0 -0.401133 0.00456195 
605 1 1 0 0 7.6443 13.9271 1.4783 -0.188287 -0.026043 -0.001854 0 -0.385802 0.0194237 
606 1 1 0 0 8.474 14.2799 2.5512 -0.188287 -0.026043 -0.001854 0 -0.341597 0.0194237 
607 2 0 1 1.86 8.0591 14.1035 2.0148 -0.188287 -0.026043 -0.001854 0 0.100182 9.63479e-05 
608 2 0 -1 1.86 8.0591 14.1035 2.0148 -0.188287 -0.026043 -0.001854 0 0.100182 9.63479e-05 
625 1 1 0 0 3.585 17.8889 3.5461 0.035711 0.059715 0.12536 0 -0.396285 0.0110501 
626 1 1 0 0 4.4742 18.3771 4.513 0.035711 0.059715 0.12536 0 -0.382761 0.0110501 
627 2 0 1 1.86 4.0296 18.133 4.0296 0.035711 0.059715 0.12536 0 0.213038 5.48119e-05 
628 2 0 -1 1.86 4.0296 18.133 4.0296 0.035711 0.059715 0.12536 0 0.213038 5.48119e-05 
709 1 1 0 0 9.5862 17.7592 3.6928 -0.066915 -0.096791 -0.056255 0 -0.40407 0.00914417 
711 2 0 1 1.86 10.0739 18.133 4.0296 -0.066915 -0.096791 -0.056255 0 0.187652 4.5358e-05 
712 2 0 -1 1.86 10.0739 18.133 4.0296 -0.066915 -0.096791 -0.056255 0 0.187652 4.5358e-05 
49 1 1 0 0 1.6014 11.6355 5.7056 0.025327 0.008489 0.02463 0 -0.387615 0.000709654 
50 1 1 0 0 2.4282 12.5418 6.3831 0.025327 0.008489 0.02463 0 -0.351823 0.000709654 
51 2 0 1 1.86 2.0148 12.0887 6.0443 0.025327 0.008489 0.02463 0 0.0462508 3.52011e-06 
52 2 0 -1 1.86 2.0148 12.0887 6.0443 0.025327 0.008489 0.02463 0 0.0462508 3.52011e-06 
65 1 1 0 0 9.5729 14.0706 5.5556 0.075832 0.040215 0.083683 0 -0.278038 0.00772494 
67 2 0 1 1.86 10.0739 14.1035 6.0443 0.075832 0.040215 0.083683 0 0.278953 3.83182e-05 
68 2 0 -1 1.86 10.0739 14.1035 6.0443 0.075832 0.040215 0.083683 0 0.278953 3.83182e-05 
97 1 1 0 0 1.7504 15.654 5.5909 0.120359 0.050543 0.036951 0 -0.370627 0.00989433 
98 1 1 0 0 2.2792 16.5824 6.4978 0.120359 0.050543 0.036951 0 -0.341039 0.00989433 
99 2 0 1 1.86 2.0148 16.1182 6.0443 0.120359 0.050543 0.036951 0 0.132545 4.9079e-05 
100 2 0 -1 1.86 2.0148 16.1182 6.0443 0.120359 0.050543 0.036951 0 0.132545 4.9079e-05 
125 1 1 0 0 9.8883 15.4426 6.0414 -0.034803 -0.028975 -0.109109 0 -0.338327 0.00750185 
127 2 0 1 1.86 10.0739 16.1182 6.0443 -0.034803 -0.028975 -0.109109 0 0.309868 3.72116e-05 
128 2 0 -1 1.86 10.0739 16.1182 6.0443 -0.034803 -0.028975 -0.109109 0 0.309868 3.72116e-05 
161 1 1 0 0 5.6071 17.8738 9.5916 0.060205 0.051955 0.003556 0 -0.385879 0.00340626 
163 2 0 1 1.86 6.0443 18.133 10.0739 0.060205 0.051955 0.003556 0 0.136973 1.68961e-05 
164 2 0 -1 1.86 6.0443 18.133 10.0739 0.060205 0.051955 0.003556 0 0.136973 1.68961e-05 
257 1 1 0 0 3.7409 15.9813 7.4355 0.029636 0.09662 0.052547 0 -0.373967 0.00697469 
258 1 1 0 0 4.3182 16.2551 8.6828 0.029636 0.09662 0.052547 0 -0.29758 0.00697469 
259 2 0 1 1.86 4.0296 16.1182 8.0591 0.029636 0.09662 0.052547 0 0.301091 3.45967e-05 
260 2 0 -1 1.86 4.0296 16.1182 8.0591 0.029636 0.09662 0.052547 0 0.301091 3.45967e-05 
261 1 1 0 0 3.5615 17.6358 5.8873 -0.029636 -0.09662 -0.052547 0 -0.378254 0.00697469 
262 1 1 0 0 4.4976 18.6303 6.2014 -0.029636 -0.09662 -0.052547 0 -0.364911 0.00697469 
263 2 0 1 1.86 4.0296 18.133 6.0443 -0.029636 -0.09662 -0.052547 0 0.132656 3.45967e-05 
264 2 0 -1 1.86 4.0296 18.133 6.0443 -0.029636 -0.09662 -0.052547 0 0.132656 3.45967e-05 
309 1 1 0 0 3.9473 13.5356 7.6569 -0.020156 -0.036909 -0.012452 0 -0.424509 0.00103403 
310 1 1 0 0 4.1118 14.6713 8.4614 -0.020156 -0.036909 -0.012452 0 -0.421666 0.00103403 
311 2 0 1 1.86 4.0296 14.1035 8.0591 -0.020156 -0.036909 -0.012452 0 0.25792 5.12912e-06 
312 2 0 -1 1.86 4.0296 14.1035 8.0591 -0.020156 -0.036909 -0.012452 0 0.25792 5.12912e-06 
313 1 1 0 0 3.4305 16.1024 9.7108 0.008432 0.004481 0.004687 0 -0.297351 6.08219e-05 
315 2 0 1 1.86 4.0296 16.1182 10.0739 0.008432 0.004481 0.004687 0 0.218309 3.01696e-07 
316 2 0 -1 1.86 4.0296 16.1182 10.0739 0.008432 0.004481 0.004687 0 0.218309 3.01696e-07 
325 1 1 0 0 7.5644 15.949 5.5779 -0.04424 -0.020223 -0.018696 0 -0.374919 0.00145982 
326 1 1 0 0 8.5539 16.2874 6.5108 -0.04424 -0.020223 -0.018696 0 -0.413524 0.00145982 
327 2 0 1 1.86 8.0591 16.1182 6.0443 -0.04424 -0.020223 -0.018696 0 0.250591 7.24119e-06 
328 2 0 -1 1.86 8.0591 16.1182 6.0443 -0.04424 -0.020223 -0.018696 0 0.250591 7.24119e-06 
341 1 1 0 0 9.5048 13.9879 7.667 -0.013144 -0.041758 -0.05218 0 -0.392672 0.00249384 
343 2 0 1 1.86 10.0739 14.1035 8.0591 -0.013144 -0.041758 -0.05218 0 0.172605 1.23702e-05 
344 2 0 -1 1.86 10.0739 14.1035 8.0591 -0.013144 -0.041758 -0.05218 0 0.172605 1.23702e-05 
345 1 1 0 0 7.41 17.914 7.912 0.094531 0.045127 0.021354 0 -0.375589 0.00614344 