ITEM: TIMESTEP
10000
ITEM: NUMBER OF ATOMS
864
ITEM: BOX BOUNDS pp pp pp
0.0000000000000000e+00 2.0107868000000000e+01
0.0000000000000000e+00 2.0107868000000000e+01
0.0000000000000000e+00 2.0107868000000000e+01
ITEM: ATOMS id type q c_1a[1] c_1a[2] x y z vx vy vz c_1a[3] 
524 2 0 -1 1.36822 19.3245 1.36737 6.64209 0.334998 0.442654 0.225889 -0.651033 
490 2 0 1 1.90383 7.07768 3.45548 1.19653 -1.31661 2.52751 -0.846282 -0.841415 
1 1 1 0 0 15.1631 0.386013 0.144329 -0.0939036 0.314462 0.353067 0 
369 1 1 0 0 12.6741 1.49347 3.65844 0.0990736 0.0539281 -0.0389666 0 
246 2 0 1 1.62061 0.722823 8.67262 2.67837 -1.62413 -2.21436 -4.31035 -1.7454 
515 1 1 0 0 9.76134 7.84037 4.76407 -0.0373234 0.0767217 0.0505564 0 
29 1 1 0 0 16.5124 0.651434 1.47545 0.0421504 -0.109848 -0.272289 0 
300 2 0 -1 2.4974 -0.0403893 6.66766 6.2062 -1.27931 -0.262929 2.03322 1.38136 
313 1 1 0 0 6.79478 2.72358 1.93866 0.454407 0.00473468 -0.100882 0 
190 2 0 1 1.6986 12.3401 1.46297 3.11845 -2.98731 0.221526 0.638301 -1.75931 
504 2 0 -1 2.5393 14.9197 1.82539 5.58159 1.596 -3.6213 1.67234 1.89544 
469 1 1 0 0 8.73009 10.029 6.24886 0.0400448 0.0858285 -0.353088 0 
51 1 1 0 0 3.86555 6.39586 3.43071 -0.637089 0.168908 0.0954284 0 
212 2 0 -1 1.585 13.4922 6.10571 1.72191 0.795401 -4.38915 2.69553 0.0293288 
242 2 0 1 2.7454 0.305752 5.35407 6.27292 2.77507 -0.0810562 4.07643 -2.19958 
789 1 1 0 0 0.398466 4.72137 1.80472 0.286908 0.040744 0.165222 0 
450 2 0 1 1.40357 1.10598 1.24984 4.49739 2.95534 -1.11483 -0.527376 -1.12847 
359 1 1 0 0 14.8922 5.50318 2.1856 -0.232482 -0.0251218 0.0100112 0 
825 1 1 0 0 0.990041 8.38315 2.75545 0.121086 -0.212778 -0.0055982 0 
641 1 1 0 0 8.61479 4.96266 5.73092 -0.287157 0.270251 0.219656 0 
706 2 0 1 1.69864 0.109654 4.87152 1.98661 -1.33553 -1.52764 2.65138 1.2616 
485 1 1 0 0 14.9267 8.88303 0.450355 0.337602 -0.0331647 0.1648 0 
293 1 1 0 0 10.1276 3.42151 4.73793 0.170454 -0.156728 -0.0306064 0 
466 2 0 1 1.56297 4.11051 4.8905 0.335191 5.10597 -1.02139 -0.950672 2.32821 
550 2 0 1 2.52493 8.06945 9.12321 1.36262 -1.7578 -1.10883 -3.44548 -1.17325 
367 1 1 0 0 13.0504 6.36395 1.52607 0.316502 0.00968976 -0.219644 0 
686 2 0 1 1.91586 3.41034 9.45194 1.6686 -2.18329 0.936646 -1.32527 0.385389 
748 2 0 -1 1.72227 14.293 9.04251 3.16054 -5.43927 0.270382 -0.100706 -5.68601 
163 1 1 0 0 9.98706 4.26509 2.33954 0.322426 0.141698 0.215202 0 
36 2 0 -1 1.70362 11.6038 4.47185 6.24425 2.91063 0.237407 1.24945 2.30678 
45 1 1 0 0 4.70585 3.26356 2.52693 -0.139849 0.250848 0.0951071 0 
227 1 1 0 0 14.7252 8.97638 3.542 -0.164202 -0.0491094 -0.184692 0 
596 2 0 -1 2.21112 2.45919 6.07988 3.29305 -1.97003 -1.85567 2.57267 1.96236 
328 2 0 -1 2.42975 2.12765 6.59257 0.686383 -1.65114 -0.921863 -2.68419 2.31116 
529 1 1 0 0 2.87623 5.22536 4.49876 -0.231357 -0.0299552 0.296738 0 
763 1 1 0 0 17.6956 9.66984 5.73477 0.107555 0.187621 -0.193022 0 
202 2 0 1 2.00224 7.78092 9.16499 2.60344 3.76931 0.193499 -0.788416 -0.926873 
506 2 0 1 1.70929 3.60037 5.82228 3.13131 -0.34215 -2.61437 0.868652 0.146742 
197 1 1 0 0 3.58105 9.91323 2.75838 0.00913586 0.0448933 0.0152032 0 
580 2 0 -1 2.23273 6.02771 3.044 0.0252742 -0.200338 -3.44957 -2.37059 -1.33851 
154 2 0 1 2.48892 10.4371 2.74672 -0.142419 1.86729 0.146744 -1.64576 3.01977 
644 2 0 -1 2.2455 10.498 9.35849 0.268487 -1.65649 -3.98479 -1.04058 -1.31258 
452 2 0 -1 2.33129 6.65367 6.75472 0.0856638 -0.0934525 3.11995 -1.70844 5.26241 
191 1 1 0 0 18.5344 5.19594 5.10545 -0.222004 0.0755825 0.518767 0 
81 1 1 0 0 15.7617 6.70354 5.87026 -0.123662 -0.0309067 0.0110123 0 
848 2 0 -1 1.41329 15.4467 4.91559 3.1996 -0.0888475 0.23316 2.48348 2.127 
120 2 0 -1 1.89783 9.38531 7.35563 5.17317 0.533938 -1.85748 -1.36317 -0.915187 
193 1 1 0 0 0.253643 6.25041 3.62453 -0.233192 0.185465 0.0581941 0 
805 1 1 0 0 6.28377 1.07808 5.04452 -0.0665355 -0.535004 -0.179277 0 
289 1 1 0 0 5.71497 4.49515 1.06838 -0.140521 -0.0196389 0.0480501 0 
360 2 0 -1 1.94096 5.07416 3.27814 2.9373 0.543926 -2.14544 4.81518 -2.56669 
44 2 0 -1 2.13642 15.869 6.49775 5.2267 -3.02445 0.0621911 -0.0465256 -5.18603 
32 2 0 -1 2.20092 7.41518 6.79665 0.935971 -2.40447 -1.20826 -0.375656 1.09251 
722 2 0 1 2.29277 7.22804 1.96793 5.91205 -0.23579 -1.63372 -0.238479 -1.86738 
662 2 0 1 2.48168 14.0552 5.81795 1.53145 1.21128 1.57367 -1.96758 -0.728779 
131 1 1 0 0 0.738106 3.46996 4.12473 -0.603096 0.463849 -0.399208 0 
498 2 0 1 1.98263 2.72117 8.98821 4.96147 -0.421598 0.549002 -1.13639 5.14807 
697 1 1 0 0 9.34976 1.27296 6.43211 -0.217923 0.0316589 0.0558995 0 
169 1 1 0 0 4.34779 5.65088 0.49144 0.256395 -0.0606552 -0.209343 0 
9 1 1 0 0 1.10612 2.42096 0.415351 0.139774 -0.0872043 0.0119721 0 
339 1 1 0 0 12.1255 3.66572 3.1618 0.0218226 -0.547805 0.126959 0 
262 2 0 1 2.22324 5.36863 4.50774 6.49987 1.2805 3.14752 1.289 3.66349 
730 2 0 1 2.28917 14.5686 9.2931 0.523937 7.47346 0.833878 0.961016 -4.25478 
482 2 0 1 2.13267 5.93647 5.89517 3.82843 -1.10731 -0.822145 4.73715 0.0789497 
544 2 0 -1 1.73821 19.3325 4.58107 0.244581 -1.04109 -0.0556354 1.3583 1.67302 
101 1 1 0 0 0.822732 8.17668 0.664883 0.126416 0.198385 0.0603688 0 
843 1 1 0 0 4.75707 1.38684 2.83662 0.116532 -0.252446 0.00561853 0 
820 2 0 -1 1.902 17.3469 2.60055 3.96 1.71892 -3.21453 0.560035 -0.74873 
752 2 0 -1 2.4004 0.699311 9.07447 1.7018 -0.630693 2.02898 -2.43368 2.97168 
192 2 0 -1 2.0936 18.503 8.18791 5.81553 -0.63041 1.01387 -0.178923 -1.00525 
746 2 0 1 1.51139 17.2643 0.248203 1.56679 1.29591 -4.86045 -2.13952 -3.19246 
57 1 1 0 0 9.25481 8.81315 0.716922 0.42454 0.190983 -0.106517 0 
435 1 1 0 0 9.29127 0.247673 3.7339 0.330686 -0.23481 -0.0559086 0 
108 2 0 -1 2.48986 12.6627 3.14041 3.50994 0.466109 1.81632 -0.660475 -0.562326 
130 2 0 1 1.61519 8.08237 4.45602 5.14465 2.27723 -3.84551 -0.632692 0.0536188 
184 2 0 -1 2.55427 12.2848 1.96154 2.4497 -0.188371 2.99053 -0.889299 2.65058 
31 1 1 0 0 19.1696 3.97809 0.61643 0.249425 -0.112986 -0.145781 0 
773 1 1 0 0 20.0515 0.943139 2.50241 -0.00466339 0.237974 -0.162919 0 
707 1 1 0 0 17.3668 9.10992 1.72414 0.198941 -0.524028 -0.390501 0 
48 2 0 -1 1.72067 17.4601 8.36758 1.53913 1.18645 1.77859 -0.449715 -0.0649996 
740 2 0 -1 2.50613 9.01508 3.88805 3.5991 -1.90807 2.03529 0.634306 -0.4247 
633 1 1 0 0 13.6239 6.00293 5.1684 -0.0199868 -0.432557 -0.0441295 0 
312 2 0 -1 2.11003 12.8303 9.62909 2.0008 -3.81478 1.88669 -2.61615 -0.156168 
233 1 1 0 0 16.3703 8.09688 2.14583 0.0889483 0.0627923 -0.143201 0 
483 1 1 0 0 7.14114 5.79047 2.39972 0.0374437 -0.277922 -0.00321019 0 
727 1 1 0 0 17.8324 1.88998 4.02702 0.2108 0.296288 -0.226082 0 
611 1 1 0 0 7.94262 2.65098 5.78531 -0.136684 -0.100844 -0.142615 0 
280 2 0 -1 3.32395 4.14892 8.47975 3.96504 -0.725202 -0.171564 -3.84434 -0.199313 
487 1 1 0 0 11.5158 4.25222 5.82479 0.091857 0.078807 0.241153 0 
781 1 1 0 0 1.25746 1.36336 4.82384 0.044902 -0.0240087 0.197785 0 
751 1 1 0 0 5.1912 6.54989 5.90108 0.0123577 0.325388 -0.119433 0 
62 2 0 1 2.06046 11.0103 1.09236 5.71449 -3.46593 1.4033 -1.95886 -1.62805 
637 1 1 0 0 15.3167 1.83412 5.94634 -0.0454173 -0.263563 -0.280357 0 
377 1 1 0 0 19.8199 8.74018 5.65648 -0.0899052 0.0225095 -0.2354 0 
513 1 1 0 0 1.05308 2.03719 3.05761 0.305945 0.119638 -0.246832 0 
486 2 0 1 2.00298 5.01664 2.91933 2.44409 3.32597 3.14437 0.0396537 -3.06549 
579 1 1 0 0 15.445 1.37957 3.27583 -0.283225 -0.150165 0.0827467 0 
400 2 0 -1 1.69973 5.49791 4.75928 6.2461 -3.60939 1.57007 4.13232 3.57455 
601 1 1 0 0 7.61831 3.73925 4.62213 -0.348992 -0.0680151 -0.222681 0 
492 2 0 -1 2.03626 10.9114 0.362797 5.62943 3.67714 2.47945 0.612163 -1.13285 
430 2 0 1 2.05172 13.9576 6.20953 5.6207 -3.1941 3.70857 0.346599 -3.71223 
261 1 1 0 0 7.06611 8.84255 1.0089 -0.264857 0.107875 0.100212 0 
605 1 1 0 0 10.2529 1.82554 0.398711 -0.136551 0.0949556 -0.0844265 0 
106 2 0 1 1.98764 11.3492 8.74582 1.7045 0.713587 -1.33441 -2.89716 -1.20144 
607 1 1 0 0 14.9478 3.95297 3.86377 0.0230633 0.257516 0.0445109 0 
669 1 1 0 0 8.22703 4.12326 0.627565 0.458921 -0.53693 0.248078 0 
7 1 1 0 0 19.6236 7.01908 6.48062 0.0312621 0.194391 -0.191738 0 
361 1 1 0 0 11.1805 8.90003 1.34194 -0.098127 -0.233987 0.0767963 0 
208 2 0 -1 1.63161 18.4006 5.70958 3.09671 1.9841 -0.755004 0.182765 1.00374 
531 1 1 0 0 15.8852 5.45582 0.296598 -0.0832769 -0.162634 0.135163 0 
712 2 0 -1 2.07673 19.4367 1.50837 1.00178 -1.24738 1.04965 -0.784006 -3.43102 
223 1 1 0 0 2.0741 5.53181 2.1724 0.00350492 -0.0771286 -0.117528 0 
631 1 1 0 0 9.4297 8.55508 3.0744 0.101479 -0.192822 0.11127 0 
437 1 1 0 0 13.522 8.56719 2.89106 0.356288 0.232723 -0.319416 0 
514 2 0 1 1.81658 11.028 4.02376 3.89681 -1.64969 1.83984 -4.09277 2.87174 
166 2 0 1 2.68079 18.1122 5.26474 4.55973 -3.39974 2.90482 0.0779315 0.633124 
656 2 0 -1 1.93587 6.33002 0.904157 4.07638 0.60758 -3.04417 -0.620156 0.949438 
484 2 0 -1 1.73601 1.29467 2.18271 3.20271 1.81532 1.77022 -1.92039 3.18109 
710 2 0 1 1.73953 13.8951 9.0961 3.23991 1.1819 4.47184 -0.328806 0.0838705 
540 2 0 -1 2.50723 0.241908 4.50613 4.71081 2.22921 4.64678 -1.23702 -1.41245 
522 2 0 1 1.90995 14.0504 2.20943 5.64949 -3.17395 -1.30403 0.309149 -3.43358 
589 1 1 0 0 16.1745 5.82011 4.23652 0.300247 0.427402 -0.464089 0 
99 1 1 0 0 4.82509 0.0599866 0.598637 0.133476 0.426136 -0.196324 0 
83 1 1 0 0 2.69766 7.83161 4.14754 0.152775 -0.230106 -0.0249795 0 
747 1 1 0 0 5.46649 4.69293 5.41969 0.0229507 -0.400643 -0.11887 0 
654 2 0 1 1.82516 0.347933 3.57614 3.6501 -4.58531 2.32576 -2.07946 0.272539 
749 1 1 0 0 17.5748 5.506 3.55442 -0.27158 0.0377317 -0.00447523 0 
535 1 1 0 0 12.9749 2.16519 2.08101 0.0145712 0.197612 -0.215255 0 
439 1 1 0 0 3.77383 1.73728 6.11384 0.191861 0.205348 -0.403825 0 
569 1 1 0 0 10.8826 0.510555 6.17408 -0.00212287 -0.0744166 -0.306641 0 
530 2 0 1 2.06124 16.3111 6.75628 1.06972 -2.24369 -0.23289 0.619044 1.86948 
153 1 1 0 0 19.2804 1.6052 6.33499 0.0418931 0.110214 -0.213293 0 
808 2 0 -1 1.66872 7.95618 4.40564 6.4705 -2.05567 3.3668 -1.64739 2.91294 
556 2 0 -1 2.03191 7.88085 2.33048 6.35942 3.27123 -3.53882 -0.513929 -1.4507 
588 2 0 -1 1.78784 16.0491 1.21581 1.10879 -3.30293 -2.49197 0.566691 -1.55184 
782 2 0 1 1.8344 3.98655 1.55731 5.64817 0.933379 2.01236 3.28046 -0.17294 
376 2 0 -1 1.77133 5.4353 7.85015 5.34077 2.79916 -2.72728 3.91904 3.86009 
322 2 0 1 2.97503 15.9338 1.20205 4.56944 0.0900376 1.94861 -1.99407 2.28643 
850 2 0 1 2.21587 9.06236 8.0028 5.17082 1.02243 -3.14835 1.21508 0.87779 
438 2 0 1 2.44533 14.1534 2.01082 1.28611 1.92654 -4.29786 0.0446906 0.756231 
88 2 0 -1 1.51014 1.13419 -0.0994989 6.46185 3.82289 -2.46502 -0.400108 -3.30117 
220 2 0 -1 2.85637 8.20922 8.89631 1.3058 -2.73631 -1.35786 3.60911 -4.53038 
718 2 0 1 2.93416 3.15843 0.960635 0.543308 -2.81935 1.37207 -0.695864 1.79815 
347 1 1 0 0 4.48752 7.9599 9.40557 -0.229638 -0.150119 0.0394512 0 
303 1 1 0 0 11.8858 3.19338 8.17691 0.191306 0.19596 0.288951 0 
489 1 1 0 0 10.6749 4.76155 7.0882 -0.482719 -0.0938312 -0.0150317 0 
206 2 0 1 2.19673 6.33794 0.927758 9.36134 -1.3823 -4.31618 0.0373947 -1.36186 
141 1 1 0 0 19.6516 8.42996 10.5164 -0.199717 0.070797 -0.405778 0 
134 2 0 1 2.23073 0.63335 7.03897 9.09096 -2.96316 -0.224821 -0.530341 2.76766 
320 2 0 -1 1.49355 19.836 2.66011 8.53938 1.40124 0.437567 -3.89445 0.356593 
288 2 0 -1 2.15414 19.0615 7.5572 10.5254 3.99181 0.481761 4.55876 3.09858 
39 1 1 0 0 7.28623 8.52451 12.7831 -0.151623 -0.0378338 -0.0341304 0 
441 1 1 0 0 4.04046 2.61289 7.75244 -0.11517 -0.0105772 -0.319355 0 
404 2 0 -1 1.6917 17.5451 4.69901 7.38156 1.94932 2.03868 -0.726951 -0.302062 
592 2 0 -1 2.3785 2.36552 5.63962 7.27515 0.359182 -2.33486 1.64328 -1.56553 
454 2 0 1 2.48948 19.3222 7.84877 10.7216 -2.50221 0.0886189 -1.25368 3.32743 
432 2 0 -1 1.88229 0.555772 1.37359 12.1111 -0.642116 -1.6922 -0.501205 2.00238 
199 1 1 0 0 4.51056 8.39179 8.0306 0.114822 -0.162433 0.214509 0 
64 2 0 -1 1.63045 4.00188 8.14522 8.84379 -1.62483 -0.533906 2.97668 0.257105 
366 2 0 1 1.59513 9.12556 5.8309 12.7052 0.413182 2.95506 0.934871 -2.53329 
626 2 0 1 1.85497 3.72875 4.61728 9.29733 3.85752 -0.320332 -0.534911 1.15495 
65 1 1 0 0 15.8271 7.57099 9.61179 0.229169 -0.168641 0.269594 0 
368 2 0 -1 2.04852 15.6983 6.0796 9.39654 -1.98371 -3.43636 -1.76071 0.0147872 
85 1 1 0 0 2.89534 5.03624 9.18893 0.144087 -0.528842 0.0631266 0 
643 1 1 0 0 1.29134 2.41509 11.1262 -0.110662 -0.319417 -0.116461 0 
33 1 1 0 0 2.32911 6.09209 7.58223 0.272086 -0.00135656 0.012481 0 
558 2 0 1 1.95436 10.3862 9.10701 9.74139 -0.804826 2.10841 1.1566 -1.89756 
334 2 0 1 1.60555 14.4289 8.60338 11.5963 -2.81248 0.874472 -3.82541 4.35965 
89 1 1 0 0 1.28585 4.27445 11.7708 0.168503 -0.198492 0.159617 0 
209 1 1 0 0 6.37801 9.64716 9.64233 0.294661 0.117028 -0.14755 0 
196 2 0 -1 2.1603 6.61724 5.12009 10.9325 5.82383 3.07783 -1.26136 -2.74591 
179 1 1 0 0 8.71457 2.17789 13.3312 0.276346 0.279949 0.146394 0 
828 2 0 -1 1.77338 3.09041 6.02545 12.5365 -0.557656 4.97318 -3.57362 -2.19561 
181 1 1 0 0 19.9932 5.23752 8.39106 -0.0124828 0.341154 -0.173794 0 
172 2 0 -1 1.82154 13.7582 6.01837 10.2694 2.69812 -3.73201 2.39506 4.91193 
668 2 0 -1 1.35239 5.68992 1.81457 8.99526 -0.895588 4.77598 -2.11308 1.37377 
729 1 1 0 0 9.41452 0.575963 11.7047 -0.163726 0.329706 -0.0568246 0 
470 2 0 1 2.05966 6.31322 7.85778 7.67498 -6.21244 3.98395 -1.89574 0.415235 
415 1 1 0 0 8.7872 2.7363 8.93457 0.15251 0.376716 0.151259 0 
345 1 1 0 0 12.5034 9.94164 7.22674 0.253156 0.485334 0.0136119 0 
365 1 1 0 0 6.24389 7.8462 6.92775 -0.309192 0.00986054 0.020959 0 
564 2 0 -1 2.55724 14.747 7.61177 7.35714 3.44851 1.39873 -0.431891 -1.28621 
440 2 0 -1 2.70516 15.0247 1.61964 11.2776 1.38011 0.434693 0.648651 -0.614482 
583 1 1 0 0 12.6592 1.50975 6.97258 0.188978 0.357805 0.0367655 0 
661 1 1 0 0 12.1788 8.30813 8.23527 0.020584 0.113223 0.497913 0 
116 2 0 -1 1.83052 13.1724 10.1027 6.55014 1.82015 2.1256 -2.23411 -6.43817 
814 2 0 1 2.04888 0.887546 4.36117 7.45833 1.01997 2.58494 -0.367039 2.35037 
234 2 0 1 3.27628 0.97223 2.06046 7.89701 -2.99067 1.81879 -1.78352 3.44995 
338 2 0 1 2.4279 13.9908 1.81151 12.4517 -0.394635 0.165732 3.85443 -0.991199 
47 1 1 0 0 2.94435 6.16311 12.6767 -0.286731 0.273907 -0.125732 0 
256 2 0 -1 1.89148 16.5178 5.80357 12.6834 3.01745 2.56724 -1.17029 2.52727 
709 1 1 0 0 14.5367 1.28395 12.4838 0.187075 0.414625 -0.228354 0 
102 2 0 1 1.88008 17.7363 5.66104 6.9812 -1.14145 -0.0211438 -1.79664 -2.43502 
475 1 1 0 0 9.96171 4.42926 12.8014 0.0125297 -0.000487978 -0.138685 0 
635 1 1 0 0 17.4113 0.140503 9.86906 0.0227695 0.101211 -0.103591 0 
323 1 1 0 0 6.73565 3.07512 10.3521 -0.0585679 -0.159046 -0.090107 0 
851 1 1 0 0 6.53496 7.21884 12.2581 0.00453887 0.200718 0.202503 0 
310 2 0 1 2.25617 11.9477 8.76196 10.3 -4.92706 -4.93098 -1.21111 -1.4939 
195 1 1 0 0 3.06935 1.13345 10.572 0.519327 -0.471428 0.146395 0 
327 1 1 0 0 4.89591 5.41364 11.7741 0.161253 -0.158689 -0.0342274 0 
462 2 0 1 1.59091 15.9742 2.14487 10.536 -1.3327 0.754379 -3.29985 0.113713 
329 1 1 0 0 6.60478 4.40511 7.39329 0.297221 0.122386 -0.250593 0 
801 1 1 0 0 12.7884 10.0365 10.0962 -0.26183 0.349552 -0.135347 0 
308 2 0 -1 1.42696 6.85578 7.46627 12.4626 2.54851 0.0940877 -2.10636 -0.69861 
183 1 1 0 0 2.29213 2.14869 13.3924 0.352534 0.15634 0.0302965 0 
161 1 1 0 0 19.7784 0.98986 9.82884 -0.0069529 -0.332688 0.119921 0 
175 1 1 0 0 17.9666 6.43507 8.49565 -0.00881626 0.353456 0.331781 0 
61 1 1 0 0 19.7686 3.19336 8.71845 0.134989 0.322549 -0.0654021 0 
859 1 1 0 0 0.337305 1.10058 13.1994 -0.160782 0.289859 0.124757 0 
353 1 1 0 0 3.70805 7.09019 8.90998 -0.0683825 -0.0864002 -0.0474695 0 
636 2 0 -1 2.29102 13.2877 4.06513 12.0129 -1.69353 -2.47506 -1.06113 3.90664 
467 1 1 0 0 8.5562 7.07051 12.7521 -0.42567 0.293456 0.167552 0 
463 1 1 0 0 12.7018 0.0453752 8.7501 -0.14103 0.145322 -0.173721 0 
358 2 0 1 1.77337 13.372 0.801814 9.48457 1.04431 -0.925259 -3.85526 2.60581 
536 2 0 -1 1.74945 8.65306 2.76734 9.29185 0.539233 0.405718 -2.28986 -0.0913979 
362 2 0 1 1.92831 2.36157 6.56101 12.6828 -4.29039 2.21615 -2.5414 1.37406 
93 1 1 0 0 13.9064 8.93166 9.66025 -0.188807 0.0798442 -0.263644 0 
854 2 0 1 1.5468 4.00485 7.2293 9.41822 -0.0177403 -1.9362 -4.60668 -2.95468 
509 1 1 0 0 12.8838 5.80676 10.1046 0.126808 -0.0791851 0.300041 0 
645 1 1 0 0 13.36 4.30858 8.19513 0.269277 -0.0735488 -0.280247 0 
25 1 1 0 0 18.3375 3.97397 10.5125 -0.29302 -0.0840734 -0.165831 0 
266 2 0 1 1.76122 12.441 4.83265 8.21229 0.62869 -4.26546 1.33134 0.398019 
472 2 0 -1 1.96094 12.0626 9.57963 9.14868 -0.276356 0.944588 0.222827 0.427398 
19 1 1 0 0 19.8676 4.4306 12.9837 -0.158005 -0.45187 -0.0659625 0 
691 1 1 0 0 12.4394 0.362446 12.9683 0.0587075 0.0277635 -0.109999 0 
473 1 1 0 0 7.61085 6.86751 7.15076 0.0507919 -0.0782051 -0.0998268 0 
225 1 1 0 0 20.0478 4.45442 6.82388 -0.396129 0.125309 0.00654617 0 
491 1 1 0 0 15.7513 5.44378 10.6859 0.30397 -0.11789 0.131905 0 
378 2 0 1 1.62005 1.8006 2.75912 11.5993 -0.0232127 -3.39442 -0.573207 -2.13726 
290 2 0 1 3.09532 6.0109 2.36572 13.3397 0.828044 1.0473 1.25615 2.09813 
78 2 0 1 2.66192 11.6232 4.77854 11.6222 -1.22669 -2.01656 1.79247 -3.30127 
37 1 1 0 0 15.9893 6.38832 13.1198 0.144035 0.134272 -0.0579974 0 
806 2 0 1 2.78475 9.74332 4.48658 9.54249 -0.507397 -2.36192 1.00044 1.61478 
150 2 0 1 1.72239 14.001 8.41642 8.35729 3.39693 -1.55609 -0.39775 -1.12608 
296 2 0 -1 1.5209 10.0237 8.15911 11.3087 2.40631 -1.50776 1.36975 -3.74551 
517 1 1 0 0 10.6049 6.03778 9.55431 0.0885799 -0.0421366 0.108244 0 
724 2 0 -1 1.48265 10.4482 6.16999 9.6626 2.52768 0.944897 -0.464851 0.200146 
700 2 0 -1 2.06316 7.15624 3.65545 12.8085 1.73533 -4.05737 3.38819 1.36563 
43 1 1 0 0 5.43441 0.819344 9.33646 -0.118703 -0.405366 0.0927347 0 
587 1 1 0 0 17.3022 4.76985 7.65937 0.0779849 0.310306 0.0384812 0 
783 1 1 0 0 15.4892 2.4848 10.3918 -0.154675 -0.20153 -0.224643 0 
591 1 1 0 0 14.8209 4.48769 12.427 -0.248933 0.511224 0.208197 0 
118 2 0 1 1.36666 14.5026 4.83636 8.26473 -1.85601 -0.0567511 -1.41932 0.664148 
630 2 0 1 1.71298 15.5787 7.36135 9.79789 -2.71712 4.37131 1.0275 -2.071 
237 1 1 0 0 14.2573 9.15991 11.3886 -0.258796 0.172655 0.130803 0 
213 1 1 0 0 4.40278 3.98861 8.57246 0.0440263 -0.130328 -0.583596 0 
445 1 1 0 0 14.6265 4.16519 8.13411 0.268692 0.32674 0.346524 0 
776 2 0 -1 2.33825 17.744 4.05856 10.0815 0.230138 0.983911 -0.625716 -2.83751 
240 2 0 -1 1.40168 19.7623 4.53856 13.508 -0.945281 -1.28726 1.60464 0.282147 
617 1 1 0 0 10.9956 8.51021 9.88007 -0.127432 -0.0104185 -0.288602 0 
548 2 0 -1 2.21069 1.66442 5.00397 10.3952 0.692386 3.05547 -0.102317 0.782554 
508 2 0 -1 2.16658 6.59468 10.0519 9.98105 -0.310926 1.82555 -0.454237 0.452287 
461 1 1 0 0 14.9045 6.588 8.22962 -0.66742 0.217702 0.365946 0 
301 1 1 0 0 6.02061 2.04748 8.47421 -0.192509 -0.299552 0.301628 0 
694 2 0 1 2.20142 6.88619 9.50437 10.196 -1.58215 -0.934224 5.28784 2.40795 
639 1 1 0 0 17.2345 4.05107 9.96407 -0.290628 -0.0744809 0.0051703 0 
761 1 1 0 0 13.4968 6.38611 12.2955 -0.111105 0.0276171 -0.236398 0 
436 2 0 -1 2.35407 12.7168 3.95465 8.30142 1.38218 -2.19774 -2.71024 -3.23258 
460 2 0 -1 1.54263 18.6926 0.442696 9.67555 -1.27806 1.54727 0.193967 2.19405 
830 2 0 1 2.15372 8.51191 5.65542 7.30404 0.16235 -1.91885 -0.135145 -0.0619062 
207 1 1 0 0 9.8639 7.88377 10.8097 0.0202532 -0.334105 -0.127469 0 
325 1 1 0 0 7.69696 4.21249 12.8522 0.380208 -0.0256844 -0.136193 0 
58 2 0 1 1.73448 16.2972 5.97405 13.2393 -1.29989 -1.05114 1.19876 -0.811493 
408 2 0 -1 3.01975 3.0129 1.00604 12.8214 -0.418885 2.1334 -0.831955 -4.46569 
807 1 1 0 0 1.34484 7.85653 10.4105 0.275815 0.128525 0.240461 0 
682 2 0 1 1.27532 17.9725 4.00668 10.1227 2.44924 2.18599 0.766899 0.852717 
419 1 1 0 0 7.4487 6.23633 10.2504 -0.0371311 0.474015 0.0732647 0 
755 1 1 0 0 14.2594 9.32731 8.0393 0.0979391 -0.125803 -0.143843 0 
779 1 1 0 0 17.4722 7.27836 10.7571 -0.208364 -0.217164 0.0423457 0 
757 1 1 0 0 12.6401 2.6056 11.1549 0.136599 -0.274759 -0.0474299 0 
18 2 0 1 1.52217 6.33407 7.11123 11.9383 -0.0764728 2.8647 -2.71734 -6.63798 
788 2 0 -1 1.9664 14.3027 9.47064 9.91126 -3.3446 2.18475 -1.89242 -2.11076 
570 2 0 1 1.80561 4.43576 3.15974 8.7902 -1.20964 0.710164 3.23697 1.04398 
24 2 0 -1 2.69757 10.2166 1.5613 7.95199 -0.210694 -1.34626 -0.181226 -1.03606 
424 2 0 -1 1.88843 4.13063 1.73912 7.26167 -0.139147 1.4825 -2.6716 -1.39708 
201 1 1 0 0 1.79957 2.67002 7.11875 0.126802 -0.279575 0.48023 0 
299 1 1 0 0 1.1498 9.9652 8.36164 -0.0306805 -0.0984005 0.132077 0 
842 2 0 1 2.21744 0.280734 3.70717 12.3312 2.05054 1.74942 -0.553328 1.77796 
354 2 0 1 1.60867 9.23472 2.7192 12.3122 -2.9357 1.94327 -3.27998 3.08087 
41 1 1 0 0 15.9907 1.62942 16.4586 -0.0515977 0.250396 -0.121015 0 
479 1 1 0 0 12.5327 1.22742 19.788 -0.0824909 -0.247731 -0.391315 0 
23 1 1 0 0 1.81141 4.27937 19.4669 -0.0360663 0.0480985 0.0193037 0 
586 2 0 1 2.04835 0.271111 8.23088 18.0992 -4.66595 -4.60693 -2.52352 -3.51429 
200 2 0 -1 3.29615 17.4782 4.20286 16.6441 0.55544 3.81813 1.12766 -1.55767 
795 1 1 0 0 16.0661 5.68322 18.5667 -0.0639131 -0.0654733 0.0130748 0 
855 1 1 0 0 17.2867 2.80818 14.6707 -0.0972245 -0.0400228 0.168824 0 
60 2 0 -1 1.66802 0.420462 7.74946 18.0489 -2.47474 2.00129 3.54037 -1.28537 
401 1 1 0 0 1.09262 4.35765 15.4114 0.116408 -0.0721671 0.484227 0 
456 2 0 -1 2.15055 16.4429 8.36916 19.0598 -1.26998 1.1665 0.85263 -2.66004 
265 1 1 0 0 0.689653 8.70847 16.7693 0.14097 -0.550944 0.131752 0 
292 2 0 -1 2.69714 10.9004 2.24478 15.2563 -2.11323 -1.14959 0.893348 0.548833 
49 1 1 0 0 3.12429 4.44837 17.9176 0.422372 0.104436 0.292057 0 
568 2 0 -1 2.24302 11.4484 8.0379 14.9173 1.03496 -0.454335 -0.979569 -1.92377 
858 2 0 1 1.77911 19.9919 1.30138 15.0067 4.33351 1.82696 0.49702 -1.35342 
115 1 1 0 0 2.12394 9.49834 14.6608 -0.14327 0.10019 -0.017449 0 
69 1 1 0 0 3.622 6.22773 18.0443 0.236796 -0.452237 -0.279904 0 
685 1 1 0 0 10.0433 8.77796 14.8167 0.0123751 -0.181299 0.226903 0 
112 2 0 -1 1.43228 3.20477 8.78377 18.8407 -1.11048 1.05597 1.61914 3.20116 
238 2 0 1 2.05804 10.7308 8.37473 14.7671 -1.57545 7.27433 -2.47272 1.89419 
264 2 0 -1 2.34511 17.914 6.19076 16.2072 2.89415 -6.07906 3.21555 2.56875 
813 1 1 0 0 11.378 8.09143 18.0663 -0.00337453 -0.0191646 -0.0879805 0 
754 2 0 1 2.31746 17.9017 9.68522 13.9855 -2.43437 -2.07844 -1.81024 0.271433 
282 2 0 1 2.23254 13.6513 3.46281 13.3554 -0.30727 0.894377 -1.89698 6.90937 
676 2 0 -1 2.0981 7.26805 4.17478 14.7916 -0.504027 -0.335563 -0.207175 4.454 
198 2 0 1 2.35445 11.2987 2.24472 16.1252 1.36092 0.43391 0.265232 -0.732046 
771 1 1 0 0 0.0758425 7.61536 18.2923 -0.300752 -0.155117 0.0219359 0 
648 2 0 -1 2.21318 6.84012 0.117629 18.8639 3.07933 -1.83914 0.137872 1.3601 
846 2 0 1 1.50094 13.8777 6.82452 18.2121 0.24815 -0.777823 -0.3309 -0.791407 
427 1 1 0 0 6.38691 0.471159 18.0735 -0.128225 0.37386 -0.0199715 0 
30 2 0 1 1.71357 1.97924 9.10633 17.2151 2.11296 0.917678 2.96785 2.80117 
28 2 0 -1 1.96339 11.8788 2.24736 16.7132 2.70243 3.83877 -1.09723 1.33992 
189 1 1 0 0 18.8781 4.64356 15.6941 -0.266971 -0.0195213 0.0568905 0 
267 1 1 0 0 4.88137 4.47415 18.2502 0.179795 -0.0200833 -0.232673 0 
753 1 1 0 0 13.2003 2.82399 19.2606 -0.312159 -0.108166 -0.310036 0 
446 2 0 1 1.7757 19.9277 5.32647 16.3104 1.58844 -3.03768 -1.48058 -2.3306 
158 2 0 1 1.97525 17.6468 0.215859 18.638 1.36915 -1.14652 0.768873 0.684459 
862 2 0 1 1.71343 15.5254 2.47622 17.8367 0.854571 -0.171311 0.152718 2.26515 
693 1 1 0 0 14.0303 4.18087 17.3291 -0.237249 -0.0180452 -0.0588467 0 
26 2 0 1 1.45668 13.0907 1.23138 18.8986 -0.0616434 0.593281 1.49888 3.98337 
171 1 1 0 0 17.7209 10.0522 19.5318 -0.203097 0.0946987 -0.111832 0 
735 1 1 0 0 1.69154 2.20796 19.0093 0.337211 0.0281448 0.208453 0 
215 1 1 0 0 4.56869 7.01506 15.4112 0.0486614 -0.0271233 -0.0460227 0 
159 1 1 0 0 2.70255 2.5607 16.1452 0.0731039 -0.000901972 0.174878 0 
332 2 0 -1 2.64719 10.7482 1.6585 19.713 -1.73047 0.709419 0.857385 4.32351 
276 2 0 -1 2.90273 11.1442 9.24892 17.1252 -2.39289 2.54083 -1.0345 0.324203 
528 2 0 -1 2.53126 1.55507 8.49715 14.8783 0.257182 -2.51402 -0.639472 -0.593782 
285 1 1 0 0 6.86334 5.74874 19.8038 0.0867413 0.189926 0.0426736 0 
864 2 0 -1 1.69882 16.294 2.12589 14.0322 2.12179 0.267356 1.69439 0.800757 
431 1 1 0 0 7.49954 3.5762 17.8021 -0.0704767 -0.032625 -0.0108962 0 
311 1 1 0 0 12.2426 2.2106 16.7736 -0.26382 0.104935 -0.27105 0 
392 2 0 -1 2.75779 11.213 4.33209 14.3216 1.34609 3.01548 -0.784028 -2.1135 
613 1 1 0 0 13.9744 2.65522 14.3016 0.147697 0.246831 0.250975 0 
444 2 0 -1 1.53633 15.7472 5.96389 20.3045 -0.948831 -1.88426 2.69595 -0.589108 
823 1 1 0 0 3.41567 8.20122 19.7968 0.353086 0.185154 -0.0648613 0 
13 1 1 0 0 16.0354 1.85385 14.6595 -0.309266 0.201105 0.217656 0 
772 2 0 -1 1.7936 2.68056 3.42293 17.3078 0.0382849 -1.20882 -0.0616418 7.72879 
170 2 0 1 1.29945 9.18704 8.74549 17.849 -2.61576 -1.18389 3.67148 -1.39745 
335 1 1 0 0 11.4993 4.34495 14.2864 -0.185581 -0.142168 -0.0672036 0 
84 2 0 -1 2.81687 8.45056 0.231503 18.3057 4.50772 -1.47534 -3.11472 -1.47751 
258 2 0 1 1.6094 16.4995 5.40385 18.0427 0.520506 1.6705 2.16006 -2.52056 
675 1 1 0 0 13.4082 0.843944 18.3417 0.0121667 -0.264231 0.12935 0 
355 1 1 0 0 10.4854 4.9122 18.8042 0.0470954 0.0529808 0.0617713 0 
151 1 1 0 0 16.9278 7.75672 19.6118 -0.213007 0.193533 -0.0527956 0 
769 1 1 0 0 10.5564 1.00253 18.2844 0.40054 -0.467174 0.0570751 0 
217 1 1 0 0 19.3277 9.54233 19.6074 0.481988 -0.373061 -0.108802 0 
560 2 0 -1 1.61956 11.3337 5.8778 19.1956 3.39645 0.579976 -0.418217 5.3097 
232 2 0 -1 1.54493 0.658044 5.38425 15.6702 4.34052 1.53576 2.31656 -0.228592 
717 1 1 0 0 10.6464 2.17586 15.8518 0.079595 0.145179 0.242042 0 
370 2 0 1 2.64709 4.15387 2.96701 13.7325 -3.901 1.01603 0.0529663 -1.65129 
381 1 1 0 0 18.5129 8.22446 14.1501 -0.664242 -0.0493471 -0.182126 0 
459 1 1 0 0 11.8426 6.13092 19.1951 -0.144796 0.379297 0.194831 0 
27 1 1 0 0 2.21549 7.45749 18.7839 0.428229 -0.109503 0.204078 0 
182 2 0 1 1.71961 7.6396 4.74948 15.2318 1.45512 -1.45127 -3.00893 -3.68874 
455 1 1 0 0 11.092 5.91614 16.8579 0.205076 -0.0930977 0.0049792 0 
571 1 1 0 0 5.80645 0.332225 14.206 0.134499 0.187764 -0.0751718 0 
457 1 1 0 0 15.6241 2.6726 17.5919 0.242214 -0.0205409 -0.0459791 0 
123 1 1 0 0 7.11495 2.30213 19.1884 0.0822431 -0.0356308 -0.197564 0 
497 1 1 0 0 1.9962 0.597298 15.4831 0.0641107 -0.0522861 -0.279668 0 
634 2 0 1 1.60614 17.1061 2.18474 14.8112 -1.49922 -2.54881 -3.19405 3.68795 
252 2 0 -1 1.71242 6.26174 0.176864 14.6523 0.951122 1.0276 -1.24741 -1.06304 
628 2 0 -1 1.81531 15.0683 1.50483 17.158 2.32681 -2.0982 0.28147 3.13375 
845 1 1 0 0 13.5705 7.03975 18.6609 0.356714 -0.132484 0.010767 0 
574 2 0 1 1.71033 10.6656 5.34855 18.621 -0.55505 -1.50719 2.57595 -1.87472 
791 1 1 0 0 17.9697 5.69921 16.5582 0.088499 -0.0069708 -0.321035 0 
689 1 1 0 0 0.315132 6.36488 16.1586 -0.0425669 -0.0737564 0.152984 0 
610 2 0 1 2.5678 1.65179 3.57329 19.4988 -3.92155 2.81892 -1.44436 2.69141 
836 2 0 -1 1.7357 7.06266 9.19279 14.6983 -1.05584 -3.70078 -1.10141 3.98188 
501 1 1 0 0 7.18462 4.81093 15.3674 -0.181964 -0.254096 0.0181826 0 
379 1 1 0 0 5.80304 7.3683 20.1261 0.166132 -0.0790422 0.367542 0 
760 2 0 -1 2.2716 15.4717 8.43038 15.4154 0.897785 -0.758952 -1.83459 0.680162 
326 2 0 1 2.57461 13.1785 4.51338 15.3591 -1.35546 -1.12738 -4.25637 0.707464 
826 2 0 1 1.9341 6.9312 9.38624 13.8768 0.0304355 2.20912 0.00919538 -3.77924 
499 1 1 0 0 15.8713 8.75627 14.4825 0.215136 0.0677509 0.0865222 0 
211 1 1 0 0 8.53254 4.81814 14.486 -0.0283634 -0.275561 -0.00224943 0 
21 1 1 0 0 20.078 1.03091 15.2767 -0.191234 0.3416 0.528641 0 
764 2 0 -1 1.6786 13.7254 4.46965 16.5466 1.59713 -3.08531 2.1911 0.207328 
809 1 1 0 0 13.539 9.14089 15.6777 0.00103495 -0.0743536 -0.0155111 0 
615 1 1 0 0 12.9283 7.58628 14.8189 0.132219 0.130645 0.249033 0 
278 2 0 1 3.2442 4.89093 3.35475 16.1662 -2.00221 1.99893 1.48875 2.07633 
397 1 1 0 0 6.26938 9.61137 13.7713 0.170821 0.0888612 0.207766 0 
702 2 0 1 1.85855 4.4243 6.10814 15.8263 -4.74956 -4.31224 -1.50263 -4.58657 
336 2 0 -1 1.76829 -0.1081 0.894527 14.8479 -0.913551 0.468636 2.67023 1.58478 
471 1 1 0 0 13.9038 7.11698 17.5801 0.0556389 -0.11645 0.143395 0 
624 2 0 -1 1.44466 3.93109 5.8439 17.7953 1.07397 -0.351781 -2.46754 -0.33185 
63 1 1 0 0 3.34485 8.46731 16.2869 -0.00868612 0.0765937 -0.0457341 0 
623 1 1 0 0 16.1528 8.95556 18.0823 0.00863083 -0.0717984 -0.269265 0 
627 1 1 0 0 16.5913 3.70609 18.7927 0.148294 -0.00945012 0.116067 0 
818 2 0 1 2.93683 1.9714 1.63594 19.9405 -0.55716 -3.22176 0.153059 2.26463 
291 1 1 0 0 6.11455 5.36044 17.3181 -0.307383 0.161688 -0.159277 0 
3 1 1 0 0 16.9156 1.21974 19.8922 -0.0951931 -0.0268772 0.0947871 0 
812 2 0 -1 2.16109 1.7513 2.50373 19.8202 -4.52698 -4.1458 0.976949 -1.33819 
350 2 0 1 1.78263 17.1268 8.90763 18.8512 0.743805 1.78417 2.73152 2.41141 
317 1 1 0 0 6.67807 2.30952 14.4673 0.0463087 0.0326728 0.015366 0 
647 1 1 0 0 14.2141 5.02204 15.1526 0.0505897 -0.0254268 0.359005 0 
52 2 0 -1 1.57254 13.7518 6.89627 18.0498 1.47113 -4.41303 0.505453 -0.0873535 
720 2 0 -1 1.36203 18.9636 9.37923 19.7004 4.45928 0.993638 0.321322 1.56614 
604 2 0 -1 2.25762 4.9292 7.44443 15.6673 -5.24984 0.270019 -4.30676 0.588599 
386 2 0 1 2.1472 6.89536 0.13587 17.3301 2.05251 -0.034129 -5.12642 0.259018 
186 2 0 1 1.90769 5.75245 3.49193 18.257 1.0369 2.68167 -0.0712287 -0.0676826 
324 2 0 -1 1.33567 6.24561 5.12648 17.5738 1.01927 0.179964 0.303468 -4.85463 
646 2 0 1 1.7227 2.34791 -0.0560701 14.6535 3.33483 -3.28076 -2.73653 -3.136 
743 1 1 0 0 4.41935 4.09561 14.6675 0.464207 -0.118769 0.094274 0 
194 2 0 1 2.09809 2.97128 5.7262 19.5202 1.2659 -1.1411 1.1443 4.59892 
434 2 0 1 2.05629 5.03051 7.37055 18.7484 -1.90711 0.281305 2.16204 5.59682 
738 2 0 1 1.36752 13.711 8.77353 15.8869 0.192349 0.996707 -1.09334 -3.29306 
383 1 1 0 0 9.15477 8.46846 17.7365 0.0402 0.436517 0.132067 0 