ITEM: TIMESTEP
2000000
ITEM: NUMBER OF ATOMS
864
ITEM: BOX BOUNDS pp pp pp
0.0000000000000000e+00 2.0107868000000000e+01
0.0000000000000000e+00 2.0107868000000000e+01
0.0000000000000000e+00 2.0107868000000000e+01
ITEM: ATOMS id type q c_1a[1] c_1a[2] x y z vx vy vz c_1a[3] c_peatom c_keatom 
752 2 0 -1 1.77139 4.91235 1.01973 0.679812 1.39602 4.30197 -3.67978 0.00378316 -0.0362245 0.0906495 
819 1 1 0 0 0.151163 3.41997 3.24708 -0.278626 0.0695419 -0.0415814 0 -0.465985 0.0452605 
17 1 1 0 0 5.27894 0.842664 0.401015 0.115381 -0.0564639 0.430298 0 -0.431153 0.108401 
445 1 1 0 0 0.989217 2.94222 0.077183 0.137486 -0.118319 -0.0198939 0 -0.410042 0.0178992 
652 2 0 -1 1.69088 2.4238 4.2104 1.65542 0.380481 6.10341 0.59481 -0.0405578 0.0118279 0.100662 
411 1 1 0 0 3.75665 2.75955 4.02718 0.0440484 0.353217 0.239383 0 -0.438464 0.0989133 
186 2 0 1 1.73153 1.42025 4.82079 4.30136 -4.28527 -0.332923 -0.977568 -0.0135994 0.188457 0.0518092 
669 1 1 0 0 6.17819 4.68439 4.89869 0.126258 -0.118406 0.00495667 0 -0.437676 0.016119 
77 1 1 0 0 4.92422 2.89017 2.449 0.131487 0.0498672 0.412583 0 -0.32107 0.102135 
622 2 0 1 1.70485 1.3431 0.0246911 1.81585 2.95658 -2.2797 -3.77386 -0.0359219 0.059492 0.0751436 
816 2 0 -1 1.74997 4.71017 2.6589 3.66708 -3.29769 -2.69527 6.21112 -0.000788459 0.0863763 0.151233 
855 1 1 0 0 0.10344 0.891879 1.08308 0.138898 0.0240114 0.116415 0 -0.422394 0.0179658 
229 1 1 0 0 2.50236 4.29382 0.944117 0.100663 -0.229947 0.160424 0 -0.370114 0.0477047 
815 1 1 0 0 1.91691 4.50104 2.14226 0.130267 -0.211093 -0.356661 0 -0.384479 0.101456 
78 2 0 1 1.90636 4.6792 0.918016 0.199792 -1.98267 1.44848 -6.80697 -0.0364121 -0.0549353 0.139627 
842 2 0 1 1.72338 2.8055 4.14531 1.87606 1.67097 3.03659 -1.41297 -0.0270104 0.0693109 0.0373569 
736 2 0 -1 1.72604 2.17751 0.0551727 4.24387 -3.58663 0.268489 -2.98254 0.01543 0.00989782 0.0582128 
520 2 0 -1 1.73056 2.73095 2.73031 6.4776 -2.73356 1.42413 -2.18128 -0.00403157 -0.0130426 0.0380192 
18 2 0 1 1.76351 5.7062 1.23934 5.0439 2.64729 -0.609418 -0.275832 0.0668067 0.163145 0.0198888 
253 1 1 0 0 2.8502 1.96929 9.40485 -0.310167 0.112309 0.237684 0 -0.374836 0.088863 
810 2 0 1 1.77303 0.620926 3.05512 7.01076 -2.13783 2.17169 -1.63483 0.0401412 -0.0203932 0.0318917 
156 2 0 -1 1.76301 2.50416 2.51657 9.32203 3.33275 -4.47762 -2.8572 -0.0104863 0.0803587 0.104844 
534 2 0 1 1.74678 3.5905 3.23661 8.41734 3.59857 -2.64866 0.530376 -0.014743 -0.0372071 0.0539861 
283 1 1 0 0 3.17981 3.15587 6.94895 -0.306655 -0.104757 0.34401 0 -0.30253 0.120064 
194 2 0 1 1.7921 3.26257 3.10462 5.10235 1.34461 -1.9201 -2.95407 0.0101388 0.240908 0.0379202 
113 1 1 0 0 4.13625 3.33296 8.09645 0.439366 0.0429566 -0.0354269 0 -0.288441 0.105437 
573 1 1 0 0 6.47993 0.62889 6.14351 -0.214346 0.15284 0.283524 0 -0.486509 0.0804663 
814 2 0 1 1.712 6.47156 1.29846 8.6663 0.897741 -2.70367 2.81308 0.0331031 0.0527027 0.042743 
43 1 1 0 0 0.0101821 4.55173 9.53167 -0.182531 -0.0687727 -0.00540721 0 -0.308193 0.020468 
255 1 1 0 0 3.70695 0.902483 5.09846 -0.0316703 -0.02664 0.0943488 0 -0.347055 0.00570579 
667 1 1 0 0 1.90201 3.02483 5.91267 -0.101156 -0.0450089 0.0539566 0 -0.338983 0.00815449 
398 2 0 1 1.70002 2.72786 1.10029 5.31686 1.75288 2.36159 -2.58893 -0.00545538 0.0888666 0.0409358 
607 1 1 0 0 6.55338 1.77297 7.9934 -0.210459 0.179646 -0.432951 0 -0.408923 0.14192 
64 2 0 -1 1.86394 5.74345 5.00087 7.89382 -0.572638 2.06536 -0.469755 -0.000442263 -0.028579 0.0128369 
635 1 1 0 0 2.0284 0.519348 5.0912 0.110019 -0.141042 0.240807 0 -0.335707 0.0483717 
760 2 0 -1 1.66662 0.0848923 4.303 8.92159 -0.99638 2.08454 3.77547 -0.0483747 -0.083627 0.0522461 
308 2 0 -1 1.71562 6.63897 0.524419 6.88704 -1.68409 1.7959 -0.807024 0.0121379 0.140136 0.0178992 
829 1 1 0 0 3.93892 1.16911 13.0615 -0.199661 0.238933 -0.203829 0 -0.334517 0.0744508 
94 2 0 1 1.6851 0.355248 4.8463 10.6447 -0.604225 -1.32925 -0.104031 0.0405964 0.0735659 0.00571696 
542 2 0 1 1.68084 0.468762 3.92373 13.7174 -0.314062 -1.89989 -0.276138 0.00573499 0.114605 0.0100911 
767 1 1 0 0 1.67913 3.99528 10.7548 -0.197274 0.212858 -0.129029 0 -0.336007 0.054225 
789 1 1 0 0 1.40503 0.534502 11.9382 0.0859668 -0.0175964 0.0177347 0 -0.435271 0.00430818 
391 1 1 0 0 1.45465 1.38739 13.6398 -0.409152 0.138882 0.179372 0 -0.389803 0.117653 
730 2 0 1 1.74049 2.56001 3.43338 11.4006 -3.12885 3.5423 -3.07909 -0.00486984 0.0625861 0.0848415 
129 1 1 0 0 1.13235 4.44917 12.94 -0.178272 -0.0968116 0.0672397 0 -0.388957 0.0245526 
133 1 1 0 0 3.22377 3.76848 11.0687 -0.242024 0.0942526 0.145423 0 -0.437663 0.0476309 
678 2 0 1 1.75506 2.10162 1.13816 12.7693 -3.43516 -0.499873 -1.87111 -0.0219142 0.0843612 0.0414674 
70 2 0 1 1.87274 4.64753 1.56482 14.58 1.97992 3.4242 0.951279 -0.0446385 -0.0157704 0.0441339 
543 1 1 0 0 4.35329 4.96794 12.8644 -0.212931 0.16013 0.145308 0 -0.223363 0.0495063 
201 1 1 0 0 4.15499 1.70955 14.851 0.301898 -0.274998 0.145284 0 -0.27993 0.100992 
847 1 1 0 0 4.97006 1.06792 11.7491 0.30902 0.150853 -0.121965 0 -0.321259 0.071562 
267 1 1 0 0 5.18539 4.79942 13.8536 -0.136938 0.0452066 0.17034 0 -0.423224 0.0267763 
596 2 0 -1 1.71547 3.01992 3.96273 11.3397 0.669903 1.04074 2.41624 -0.00663291 0.0108517 0.019652 
298 2 0 1 1.61639 5.70331 1.31718 11.8867 0.207182 -0.985489 -1.84172 0.0490347 0.0480241 0.0117532 
504 2 0 -1 1.56274 4.25286 1.07231 13.1454 -2.57715 0.814982 -1.07333 -0.0176399 -0.0207554 0.0225531 
772 2 0 -1 1.69648 1.25239 0.214068 11.7735 0.660558 4.38969 -1.84774 -0.001429 0.0493358 0.0616474 
108 2 0 -1 1.68954 0.135804 4.21301 13.1973 -0.863028 2.49799 -0.309608 -0.0154214 0.00824704 0.0188805 
664 2 0 -1 1.64151 4.91234 4.39807 13.9273 -0.851325 1.83588 2.11044 -0.0112105 0.0255889 0.022796 
604 2 0 -1 1.67693 0.289936 1.36758 14.3625 -0.09366 -3.73483 0.980769 0.0450565 0.0921692 0.0397862 
616 2 0 -1 1.78768 6.67716 0.0750419 15.0654 2.64871 0.688836 4.86171 0.0101754 0.117659 0.0829967 
123 1 1 0 0 1.23553 1.84722 18.3298 0.130011 0.161451 0.240517 0 -0.34529 0.0541949 
803 1 1 0 0 3.29969 3.97414 15.3966 -0.0585175 0.0553028 0.0267816 0 -0.44802 0.00387035 
817 1 1 0 0 0.311575 1.96033 15.4442 -0.163453 -0.414078 0.0156077 0 -0.387744 0.106662 
692 2 0 -1 1.71356 1.18682 0.796436 17.854 -1.35164 -3.14842 -1.39281 0.0051809 -0.0883543 0.0364752 
287 1 1 0 0 3.2708 2.1183 19.8334 0.19455 0.171561 -0.0969253 0 -0.226955 0.0412181 
699 1 1 0 0 4.87232 3.47336 19.7508 -0.160984 -0.180697 -0.111051 0 -0.32063 0.0381123 
193 1 1 0 0 1.53097 0.0990848 18.2463 0.164991 -0.418191 0.261817 0 -0.283131 0.145491 
483 1 1 0 0 3.40193 0.310172 19.9843 -0.0575293 -0.0458962 -0.137166 0 -0.232277 0.0130253 
452 2 0 -1 1.67505 1.08542 3.05589 19.8525 2.12376 -1.89873 0.779721 -0.00696362 0.0412936 0.0232607 
711 1 1 0 0 2.07288 2.52926 15.6593 -0.0850819 0.11405 -0.116494 0 -0.401935 0.0181785 
51 1 1 0 0 5.82234 1.9236 16.6935 0.0641662 0.102401 0.202274 0 -0.209865 0.0298439 
742 2 0 1 1.75871 6.3628 0.759442 16.994 4.41667 3.96154 -7.29543 0.00305886 -0.113348 0.235777 
342 2 0 1 1.86257 4.05294 3.74839 19.2399 1.16154 0.411898 -1.32356 -0.0284773 -0.0228026 0.00872259 
121 1 1 0 0 2.7965 3.58216 18.4454 0.0746199 -0.0210181 0.267778 0 -0.294159 0.0417758 
472 2 0 -1 1.72457 3.65627 2.87541 18.6563 -0.325369 1.87052 -1.93876 0.00609714 0.00479967 0.0196343 
14 2 0 1 1.74102 1.30504 2.11069 19.0271 1.64807 -3.0603 -2.65681 -0.0123584 0.0817413 0.0510363 
224 2 0 -1 1.68085 2.56936 3.72851 15.6977 2.28761 -2.56745 -2.01477 0.0226535 0.0612141 0.0423553 
338 2 0 1 1.69013 2.85049 3.644 15.6704 -0.927415 3.5392 -1.19531 -0.00410226 0.0964209 0.0395027 
637 1 1 0 0 5.10211 4.90043 17.423 0.0235583 -0.0649741 0.401908 0 -0.287491 0.0893986 
482 2 0 1 1.80735 0.55182 4.82492 19.9349 3.67962 2.63337 1.54532 -0.0143057 0.0925092 0.060961 
586 2 0 1 1.65697 1.2601 2.01035 15.4085 -2.18641 1.31258 -1.31785 -0.0307551 0.116315 0.0219732 
854 2 0 1 1.81433 2.35496 0.158345 19.0172 1.21813 5.47929 2.48808 -0.00516761 0.0195673 0.100517 
602 2 0 1 1.64615 5.41571 6.10447 0.706514 -2.1859 0.831006 0.934214 -0.00455616 0.013577 0.0169091 
60 2 0 -1 1.70675 3.20456 6.1053 4.62928 2.49694 0.887379 1.04694 -0.0184131 0.030335 0.0216473 
373 1 1 0 0 4.13572 8.33333 2.04372 0.263084 -0.270163 0.191796 0 -0.456676 0.0962148 
181 1 1 0 0 3.003 5.78303 3.50302 0.0890506 -0.0907088 -0.0390545 0 -0.394455 0.00950573 
638 2 0 1 1.81287 4.60422 5.55956 4.20763 -2.39787 -1.88988 -2.66959 0.0181328 0.10262 0.0438584 
644 2 0 -1 1.77887 4.59337 8.31984 4.74987 0.259692 2.804 0.0943635 -0.000161677 0.129257 0.0211681 
449 1 1 0 0 5.8862 6.58258 0.90463 -0.0797739 0.111939 0.0435665 0 -0.350975 0.0111769 
291 1 1 0 0 4.72046 5.44903 1.04611 -0.0638113 -0.10489 -0.165227 0 -0.460414 0.0227781 
295 1 1 0 0 6.2633 9.45602 1.32795 -0.0883408 0.124595 0.196773 0 -0.172946 0.0333538 
693 1 1 0 0 6.46221 6.86585 4.19118 0.124033 -0.163819 0.0692425 0 -0.304356 0.0252734 
793 1 1 0 0 3.92266 8.90824 4.54823 0.00168912 0.00213544 0.0837207 0 -0.406266 0.00377178 
190 2 0 1 1.82093 3.85917 8.69308 3.03314 4.43323 -2.46031 1.20504 0.0183419 0.125598 0.0724176 
839 1 1 0 0 0.968231 8.28163 1.5657 0.186188 -0.0343592 0.167375 0 -0.481876 0.0343285 
392 2 0 -1 1.72733 6.06337 5.12667 4.1584 -0.0855937 -1.18451 0.481063 0.0090679 0.144102 0.00437795 
225 1 1 0 0 0.0736163 7.59681 2.60524 0.0715803 -0.252052 0.134809 0 -0.425474 0.0466744 
332 2 0 -1 1.67552 5.17147 5.06759 1.19388 -1.32081 0.763091 -0.314663 0.00741578 0.0971384 0.00646847 
243 1 1 0 0 0.148405 6.54414 4.36395 0.137596 0.076763 -0.231336 0 -0.367488 0.0421127 
668 2 0 -1 1.86238 4.80162 8.38994 1.64457 -3.1004 1.87736 3.33331 -0.00868144 -0.020476 0.0646555 
128 2 0 -1 1.80029 1.03128 7.98574 2.37276 0.634395 6.40595 0.826709 0.015097 0.0884241 0.112316 
694 2 0 1 1.84922 1.68869 6.92175 1.15951 3.71441 -1.40236 -1.45047 0.0551408 0.294364 0.0476481 
50 2 0 1 1.76886 1.0248 8.30291 2.4488 0.268706 1.15787 -4.43152 0.0236123 0.24135 0.0561327 
852 2 0 -1 1.65527 2.08714 7.98151 6.47486 -3.60527 -1.34219 6.44824 -0.0488518 -0.148065 0.150336 
799 1 1 0 0 1.1669 7.92643 6.26819 -0.121621 0.225688 -0.106809 0 -0.193489 0.0414641 
71 1 1 0 0 0.890521 5.14307 5.12943 0.149931 0.105012 -0.0899546 0 -0.333383 0.0223614 
197 1 1 0 0 0.873891 6.89182 9.94412 0.0273415 0.131611 0.241507 0 -0.295593 0.041066 
228 2 0 -1 1.84861 5.49412 8.25301 7.49552 2.48554 7.49114 -0.660473 -0.00984811 0.0744666 0.167269 
531 1 1 0 0 5.26599 8.87887 7.57397 0.175744 0.0808687 -0.204036 0 -0.497782 0.042497 
38 2 0 1 1.79956 6.29975 5.71479 9.00817 -1.51182 1.57576 0.192581 0.00625243 -0.0100337 0.0128142 
683 1 1 0 0 3.44522 6.76893 8.54409 0.272756 0.191281 -0.211835 0 -0.238962 0.083782 
115 1 1 0 0 2.5049 7.93583 9.72198 0.000661702 -0.183855 0.0450457 0 -0.210173 0.0192618 
685 1 1 0 0 4.51847 6.03081 5.1196 -0.135673 -0.129427 -0.0402827 0 -0.354287 0.0197719 
501 1 1 0 0 2.3348 8.44032 6.31716 0.12902 -0.104891 0.0856288 0 -0.295336 0.0188039 
334 2 0 1 1.68799 2.0576 8.53213 5.99364 3.93096 5.20574 0.737496 -0.0480339 -0.102291 0.114917 
502 2 0 1 1.81777 4.95063 9.05597 7.93384 0.93679 1.1739 0.0266593 0.00920534 0.0386089 0.00601652 
479 1 1 0 0 5.58209 6.6126 9.01921 -0.291894 0.0333097 -0.35525 0 -0.261103 0.114237 
280 2 0 -1 1.77192 2.77776 7.22646 9.76953 -2.25152 -0.0339532 1.06964 0.00271783 -0.116295 0.0165709 
395 1 1 0 0 2.72369 6.94769 5.30314 -0.162782 -0.304453 0.0231016 0 -0.230505 0.0643576 
526 2 0 1 1.80727 2.44628 6.85061 8.97796 -1.47364 3.42442 -1.52627 0.00841467 -0.0897446 0.0432703 
731 1 1 0 0 6.2964 5.19398 8.10203 -0.0700742 0.328113 -0.108144 0 -0.388521 0.0667983 
744 2 0 -1 1.75854 0.0534296 5.23722 6.07301 1.28234 -1.64037 -3.85339 0.0661315 0.0197878 0.0511612 
849 1 1 0 0 0.747918 7.87928 14.2198 -0.44435 -0.0231457 0.311215 0 -0.310102 0.158491 
74 2 0 1 1.71147 0.916696 7.82432 14.4159 -0.393551 -1.44656 -2.73054 -0.0346729 -0.08927 0.0258755 
584 2 0 -1 1.7179 4.17102 8.43987 13.6586 -1.43811 -1.40931 2.1419 0.00553041 0.0539856 0.0230436 
248 2 0 -1 1.67013 0.154928 7.25401 10.1698 -0.366788 -3.1975 -1.21171 0.00815427 -0.0371983 0.0315354 
294 2 0 1 1.61961 5.72497 9.3766 11.6481 1.86957 -0.206753 1.59142 0.00280555 0.0670407 0.0161871 
821 1 1 0 0 3.5056 9.39091 13.5129 -0.0811096 0.0860532 0.000265317 0 -0.332481 0.00751713 
615 1 1 0 0 3.70563 7.57591 14.228 -0.300208 -0.147645 0.102532 0 -0.324807 0.0658161 
175 1 1 0 0 5.64696 8.75098 13.9447 0.141882 0.010091 0.156424 0 -0.223781 0.0240289 
358 2 0 1 1.59377 4.45196 8.22152 13.6103 0.115096 -2.27382 -2.09862 0.0615689 0.0405288 0.0255726 
79 1 1 0 0 6.10143 8.76352 11.2366 -0.116737 -0.296082 0.199734 0 -0.34162 0.0758948 
825 1 1 0 0 3.04495 9.31358 10.9226 -0.111726 0.00876206 -0.0324229 0 -0.271669 0.00731654 
495 1 1 0 0 5.43377 7.57986 15.0281 -0.244858 0.00227495 0.235876 0 -0.301504 0.06214 
110 2 0 1 1.70416 5.47475 5.08455 13.7467 4.51303 3.94721 -0.846922 0.0259292 -0.0212238 0.0977665 
296 2 0 -1 1.62044 5.11525 7.03772 14.9951 0.38351 4.565 -1.30331 0.00313989 0.107133 0.0604878 
87 1 1 0 0 3.57577 5.90368 16.8332 -0.0408677 -0.0724196 0.215533 0 -0.244579 0.0286888 
765 1 1 0 0 1.43013 6.93883 19.5389 0.382058 -0.107964 0.029951 0 -0.412416 0.0852138 
585 1 1 0 0 1.37975 7.15583 15.4252 0.0908472 -0.103286 -0.0979527 0 -0.209425 0.0153288 
397 1 1 0 0 3.79162 8.19645 19.1507 -0.0462592 -0.0513661 -0.108045 0 -0.296308 0.00884391 
321 1 1 0 0 5.68986 8.69673 17.4641 -0.179876 0.0305534 -0.0697617 0 -0.258631 0.0205105 
788 2 0 -1 1.65685 4.53859 5.51891 17.3672 -4.75582 5.44995 -7.10157 -0.0403762 -0.0160091 0.273985 
223 1 1 0 0 1.25568 5.57926 17.6754 0.300606 -0.125726 -0.196361 0 -0.262641 0.0777993 
634 2 0 1 1.76344 3.10188 8.64236 18.5022 0.837847 -4.92353 6.86749 -1.63807e-05 -0.0506009 0.192265 
407 1 1 0 0 3.30026 9.36801 17.7312 -0.105442 0.172998 -0.310874 0 -0.30802 0.0740152 
92 2 0 -1 1.83328 2.17731 9.47622 15.916 -2.28816 3.86385 -0.161926 -0.0322066 -0.0408047 0.0538406 
443 1 1 0 0 2.14731 8.08554 16.2414 0.276292 0.20965 0.181247 0 -0.144422 0.0823214 
293 1 1 0 0 1.22719 9.96081 16.0241 0.047315 0.274728 0.0253514 0 -0.284211 0.0421211 
160 2 0 -1 1.78011 3.99774 8.80985 17.9217 -1.5588 -4.23996 1.66476 -0.00667489 -0.089619 0.0618042 
370 2 0 1 1.76681 5.85076 8.20291 16.726 1.30797 -0.691618 1.0291 0.0175135 -0.0510732 0.0086616 
240 2 0 -1 1.75165 2.03878 6.87765 15.2507 1.85131 -2.52891 2.26701 -0.0386687 -0.0484428 0.0398982 
88 2 0 -1 1.75678 1.06963 7.09233 19.3176 -3.68375 2.50136 0.844902 0.00605164 7.72696e-05 0.0547703 
562 2 0 1 1.84197 1.85142 6.23173 17.0731 -1.14749 -0.44223 -4.13534 -0.0226385 -0.0499202 0.0496321 
2 2 0 1 1.84864 0.34231 9.76235 17.0816 3.10567 7.72114 -0.4492 0.0195588 -0.0207345 0.185219 
764 2 0 -1 1.71247 1.9069 14.9322 2.76853 -1.31904 0.31105 4.5164 0.0124058 -0.0775987 0.0592871 
331 1 1 0 0 3.50582 11.8326 1.41075 -0.0221832 -0.0572012 0.200634 0 -0.414794 0.0236619 
148 2 0 -1 1.74372 1.8965 10.7388 3.50435 4.14824 5.69189 5.21612 -0.0132421 0.0292572 0.204818 
191 1 1 0 0 5.36067 14.2235 1.67728 0.0908 -0.244058 -0.177647 0 -0.227463 0.0534152 
173 1 1 0 0 2.42396 10.7827 4.10866 -0.0460073 0.0646991 0.124415 0 -0.472621 0.0117089 
98 2 0 1 1.82245 2.21135 14.4548 2.8996 1.90685 0.69608 -2.79579 -0.0146269 -0.111034 0.0318297 
661 1 1 0 0 1.04506 11.2561 3.06175 -0.068912 0.0133908 0.137265 0 -0.319978 0.0127775 
751 1 1 0 0 1.975 11.0648 0.155942 0.0040062 -0.2711 -0.236346 0 -0.252432 0.0695433 
627 1 1 0 0 0.153681 14.9346 4.18723 0.0084058 0.401758 -0.160012 0 -0.350527 0.100568 
588 2 0 -1 1.73218 5.45739 14.7401 3.67937 -2.13062 3.87738 -4.51381 0.00401489 -0.084565 0.106519 
761 1 1 0 0 5.05353 14.6803 4.01804 -0.0863715 0.039488 -0.166021 0 -0.375524 0.0196649 
450 2 0 1 1.70064 2.28682 11.088 4.27501 3.09541 -3.6627 4.13298 -0.00270947 0.024487 0.106867 
771 1 1 0 0 2.58272 14.9964 3.03232 -0.239155 -0.0325465 -0.00557647 0 -0.351504 0.0313314 
196 2 0 -1 1.72864 3.82338 11.7926 0.65637 5.07338 2.09875 -2.86342 0.0401302 0.117468 0.102242 
117 1 1 0 0 2.02103 14.248 1.73345 0.0300043 -0.0162183 0.211194 0 -0.217085 0.0246017 
626 2 0 1 1.76193 3.41437 11.4298 0.463454 0.37999 -0.599926 3.33499 0.0762932 0.0264799 0.0310128 
146 2 0 1 1.76795 5.41906 14.5976 2.90932 -0.600746 5.15803 3.45256 -0.00484548 -0.0398964 0.103688 
590 2 0 1 1.8344 3.08396 10.9071 7.12278 3.88958 -3.22839 -3.62626 -0.0459712 -0.00833101 0.103198 
132 2 0 -1 1.69917 1.98054 12.9848 9.09937 1.54411 1.40028 -2.80658 -0.01124 -0.192544 0.0325892 
439 1 1 0 0 5.052 14.8221 8.31908 0.421145 0.236738 0.0337007 0 -0.414536 0.12608 
25 1 1 0 0 2.82073 10.6336 7.64921 -0.0489091 -0.264878 -0.184832 0 -0.241201 0.0573652 
63 1 1 0 0 2.03255 12.2551 9.4128 0.0971297 -0.152651 -0.1212 0 -0.254432 0.0254939 
798 2 0 1 1.68918 4.73182 13.3874 5.44073 1.29139 -4.82188 -4.94039 0.0537597 0.00941911 0.131529 
621 1 1 0 0 0.477837 11.8576 7.80505 0.0739502 0.153679 0.379231 0 -0.210629 0.0929438 
83 1 1 0 0 6.08961 11.9093 8.42465 -0.218768 0.203298 0.0228751 0 -0.387789 0.0482253 
241 1 1 0 0 5.02697 12.5112 5.60685 0.0271546 -0.257103 -0.0541334 0 -0.311155 0.0375048 
486 2 0 1 1.59811 1.82748 13.6332 8.02456 -2.13603 5.00251 -2.8027 -0.0254883 -0.180057 0.09984 
5 1 1 0 0 6.42043 13.2459 6.78958 0.0899337 -0.124155 0.198973 0 -0.16413 0.0339155 
216 2 0 -1 1.70911 0.69195 12.1487 6.13753 2.14435 0.417274 -3.27279 -0.0389194 -0.110884 0.0412888 
781 1 1 0 0 0.814669 12.0059 5.95494 -0.140245 -0.0332305 -0.0471651 0 -0.261802 0.0123624 
408 2 0 -1 1.80092 3.98094 12.3832 5.82827 -0.447053 5.27228 -1.53304 0.0261559 -0.0625858 0.0809195 
729 1 1 0 0 2.96751 13.4924 8.3663 0.0393651 -0.0778897 -0.0656304 0 -0.137818 0.00640965 
755 1 1 0 0 2.73249 12.6025 5.93074 -0.102067 -0.22097 0.103346 0 -0.217512 0.0375888 
514 2 0 1 1.88732 6.49353 12.0864 9.84221 3.00036 -1.74444 3.42798 0.0467982 0.203218 0.0634555 
488 2 0 -1 1.84879 5.48083 11.9768 9.13109 3.63972 -0.840352 -2.62497 0.0183972 0.0824079 0.0555804 
59 1 1 0 0 1.48278 13.6015 8.05618 -0.309566 -0.177376 0.376648 0 -0.225135 0.144686 
69 1 1 0 0 1.00533 12.0634 11.041 -0.0789656 0.251519 0.202718 0 -0.34329 0.0594489 
577 1 1 0 0 6.09754 12.2671 10.6772 -0.167317 0.426853 0.044652 0 -0.501565 0.114064 
559 1 1 0 0 2.97555 13.8356 13.0582 -0.106196 0.0460958 -0.249932 0 -0.409225 0.0407833 
34 2 0 1 1.82679 6.50804 13.7276 10.8901 4.26818 -2.20194 -4.2505 -0.0119171 0.233228 0.109678 
415 1 1 0 0 2.67465 11.4162 12.3787 0.0232135 0.100774 -0.12384 0 -0.37169 0.0139928 
86 2 0 1 1.80696 2.62327 13.4866 12.8716 -3.13908 2.43749 2.02922 -0.0251413 0.0442806 0.0530977 
236 2 0 -1 1.67052 4.18678 13.7189 12.3876 -0.959836 -1.14908 -2.75892 0.0698245 0.187187 0.0262829 
831 1 1 0 0 3.42366 14.6347 10.4705 -0.079962 -0.210958 -0.350712 0 -0.315281 0.0934785 
204 2 0 -1 1.73394 3.36017 10.3916 12.0366 -1.23434 -4.32922 -2.95368 0.0631696 0.0676301 0.0773077 
130 2 0 1 1.75052 3.29398 10.2097 11.3728 3.49283 1.71961 -2.36756 0.0446418 0.130601 0.0553652 
7 1 1 0 0 5.07865 10.0567 10.7363 -0.148132 -0.0463671 -0.229184 0 -0.294126 0.0411865 
553 1 1 0 0 4.82581 14.4871 13.3301 0.0375288 -0.120433 -0.0298983 0 -0.467991 0.00903432 
624 2 0 -1 1.69953 0.498753 11.6408 11.525 5.6961 3.61793 2.36419 0.0225387 0.0494123 0.136321 
654 2 0 1 1.76767 5.12595 14.6819 13.6826 -1.64376 -0.261051 3.51921 -0.00876254 0.0918544 0.0404097 
470 2 0 1 1.68079 5.307 10.4344 15.0378 2.2619 -0.940095 4.11493 -0.0452537 -0.0156577 0.0611524 
834 2 0 1 1.80803 2.14433 11.5568 10.1921 3.18825 4.64139 0.570551 0.0118458 0.071733 0.085414 
657 1 1 0 0 1.95533 15.0668 14.5521 0.285244 -0.124485 0.168537 0 -0.204692 0.0673368 
619 1 1 0 0 4.61534 10.9257 17.0822 -0.0307925 0.00613347 0.151075 0 -0.335702 0.0127988 
140 2 0 -1 1.69519 4.03952 14.4917 17.9736 0.369915 6.96828 -3.55372 -0.0157427 0.0800455 0.163513 
222 2 0 1 1.81416 6.39846 13.7881 16.3216 -2.9564 0.581631 -1.31172 -0.0162714 0.00730061 0.0287959 
265 1 1 0 0 0.655649 14.2328 16.0552 0.292727 0.272675 0.0252381 0 -0.289078 0.0863727 
143 1 1 0 0 1.93339 13.273 17.2056 0.256956 -0.0416328 -0.0247331 0 -0.251851 0.0367533 
163 1 1 0 0 4.63141 11.9481 18.3779 -0.0723706 0.0147631 0.0847518 0 -0.391158 0.00679376 
589 1 1 0 0 5.83536 11.7468 15.2651 -0.411139 0.103738 -0.0631281 0 -0.342524 0.0987924 
153 1 1 0 0 5.6337 13.4155 16.6748 0.181555 0.155264 -0.139553 0 -0.373887 0.0411464 
8 2 0 -1 1.64982 4.65493 12.0247 17.9016 2.22931 -1.17724 -1.57254 -0.0372355 0.0666732 0.0235435 
513 1 1 0 0 3.94296 14.7484 17.8059 0.206001 0.121956 -0.113386 0 -0.482034 0.0377179 
238 2 0 1 1.69428 4.49413 11.4645 16.937 -4.1004 -3.13138 -2.19328 -0.00163399 0.0735005 0.0838041 
109 1 1 0 0 2.04439 12.715 15.1316 -0.451523 -0.217662 -0.126193 0 -0.465868 0.14362 
547 1 1 0 0 0.919981 11.7651 19.4992 -0.00120508 -0.262059 -0.00728032 0 -0.251134 0.0369456 
274 2 0 1 1.78944 2.2247 12.7606 15.7791 3.8732 -1.91352 -7.1034 -0.00876553 0.0117431 0.184308 
119 1 1 0 0 6.32518 14.7918 15.7041 0.0824006 -0.234203 0.0248125 0 -0.398161 0.0334662 
336 2 0 -1 1.70294 6.10766 14.8305 16.2507 1.38276 -3.3648 -1.14899 -0.0144276 0.0479387 0.0388079 
598 2 0 1 1.68624 3.40039 14.9304 17.9736 -0.0409265 -0.235829 -2.07134 0.0223239 -0.0106672 0.0115939 
188 2 0 -1 1.72981 1.70593 12.5958 15.3351 1.90679 3.08825 -0.633003 -0.0062719 0.0259345 0.0361937 
312 2 0 -1 1.65126 -0.0264766 14.5065 16.3987 -3.2808 2.20153 3.59262 -0.0122694 0.0903881 0.0760397 
112 2 0 -1 2.0149 1.40718 12.3855 19.7537 -0.923769 0.0736091 0.260384 0.0090084 0.0763754 0.00247079 
284 2 0 -1 2.00636 1.04605 11.9746 19.2876 -1.43865 0.76442 -0.339898 -0.0167624 0.026611 0.00738547 
539 1 1 0 0 5.15952 10.3619 15.1005 0.115732 -0.111334 0.235157 0 -0.306598 0.043589 
232 2 0 -1 1.72876 5.2821 11.6839 15.1165 2.55012 -6.56197 2.90619 -0.0154268 -0.00664833 0.154676 
167 1 1 0 0 6.27704 16.4792 4.61321 -0.0974253 -0.028273 -0.0235711 0 -0.364967 0.00583064 
48 2 0 -1 1.66544 5.23314 16.1207 0.515163 1.81785 3.82285 -0.280954 0.00512271 -0.0214712 0.0479897 
551 1 1 0 0 1.20021 19.7889 1.46351 -0.134378 0.051529 -0.112081 0 -0.34657 0.0178869 
721 1 1 0 0 6.03486 16.0608 0.791369 0.0296621 -0.189918 0.195479 0 -0.4633 0.0404029 
609 1 1 0 0 5.73791 19.4851 3.7722 0.0308353 -0.0272825 -0.126887 0 -0.367603 0.00956595 
180 2 0 -1 1.71013 3.40033 18.7098 2.4229 -0.61656 3.28368 -1.70374 -0.0270337 0.00228054 0.0375059 
578 2 0 1 1.71953 4.00527 18.4846 2.93342 -5.12464 1.31273 4.08259 -0.00403873 -0.0154743 0.119064 
57 1 1 0 0 1.49545 16.6829 0.347742 -0.096961 -0.145247 -0.0893406 0 -0.348911 0.020685 
499 1 1 0 0 2.92594 19.1481 3.1557 -0.059107 -0.120564 -0.0301116 0 -0.344539 0.0101792 
631 1 1 0 0 0.711069 19.8086 4.0168 -0.394137 -0.378396 0.173058 0 -0.411179 0.176573 
571 1 1 0 0 3.97177 18.4486 2.50059 -0.262622 -0.00412384 -0.00530684 0 -0.428785 0.0370995 
582 2 0 1 1.65027 6.34176 15.7866 0.828252 2.36556 0.251492 2.06245 0.000864866 0.113408 0.0264319 
256 2 0 -1 1.78963 5.20487 18.7865 4.63805 0.238957 1.61122 -0.346844 0.00824161 0.0493137 0.00739531 
774 2 0 1 1.55427 0.697423 19.323 4.30355 -0.741711 -3.90084 0.286536 0.037025 0.0966482 0.0422624 
718 2 0 1 1.81069 5.99109 17.3568 4.71504 2.59131 1.47274 -3.5174 0.0207527 0.0652866 0.0566784 
356 2 0 -1 1.88436 4.4496 15.4695 7.3589 2.24418 0.382238 1.79017 0.0402096 0.0860479 0.022367 
16 2 0 -1 1.69304 2.03075 18.0829 8.31252 2.36533 -0.0389637 0.205731 0.00692439 -0.100993 0.0150351 
541 1 1 0 0 6.30754 16.3407 7.1504 0.000311146 0.101864 -0.149829 0 -0.479569 0.0176453 
9 1 1 0 0 4.44987 18.3451 5.36867 -0.0594756 -0.161938 0.170585 0 -0.329647 0.0316406 
658 2 0 1 1.85239 5.77292 15.7476 8.3166 -3.60721 -1.98648 -0.701975 0.0390566 0.159899 0.0465345 
281 1 1 0 0 1.59173 18.6533 8.77688 -0.0490001 -0.12948 -0.0189604 0 -0.157001 0.010496 
268 2 0 -1 1.92508 3.69294 19.7659 8.39226 -0.563724 -0.398023 1.60161 0.00345957 0.095111 0.00810957 
453 1 1 0 0 5.21098 18.6724 8.68819 -0.134786 0.129606 -0.105695 0 -0.38097 0.0248007 
263 1 1 0 0 3.47467 17.3965 7.47485 -0.0453705 -0.148221 0.0979532 0 -0.289239 0.0180739 
97 1 1 0 0 3.29672 19.3928 9.35492 0.0445633 0.216517 -0.000619875 0 -0.314077 0.0262679 
396 2 0 -1 1.65286 5.81418 18.5883 8.938 5.11181 0.0740537 2.39585 -0.0343841 0.135299 0.0849981 
131 1 1 0 0 1.79401 18.4337 7.00456 -0.0217433 0.0697575 -0.313476 0 -0.213096 0.0556936 
466 2 0 1 1.87009 3.73747 19.7243 10.0174 3.50074 2.35656 -0.153538 0.0246443 -0.0539622 0.0475493 
214 2 0 1 1.72832 3.25892 18.0008 6.91259 3.07041 2.20636 -2.38646 0.0107484 -0.053964 0.0533038 
719 1 1 0 0 0.645522 16.2548 7.42327 0.240976 0.653747 0.14805 0 -0.165563 0.272739 
374 2 0 1 1.67177 0.797913 18.3673 7.35145 4.46928 0.1743 -3.85246 -0.00160468 -0.158842 0.0929152 
127 1 1 0 0 4.3597 19.6455 13.0452 -0.0585048 -0.0851447 0.0235672 0 -0.230009 0.00603555 
393 1 1 0 0 5.63623 16.2083 12.2703 0.0786191 0.0474102 -0.0262463 0 -0.327112 0.00490117 
414 2 0 1 1.79722 3.79823 15.4202 10.1205 0.227009 2.71544 -3.27544 -0.00999094 -0.00399018 0.0484058 
465 1 1 0 0 1.29172 18.1931 13.1812 0.156903 0.307633 -0.125264 0 -0.335549 0.0725413 
96 2 0 -1 1.6996 4.12276 18.9394 11.7596 -1.10816 3.68977 -2.87329 0.00775754 0.0140058 0.0615899 
345 1 1 0 0 1.44378 17.2735 10.9292 -0.102639 0.191682 -0.150108 0 -0.334507 0.0375262 
288 2 0 -1 1.71029 0.559435 17.7253 10.8619 0.727048 -0.851157 -2.95765 -0.0300849 -0.0475016 0.0266681 
614 2 0 1 1.64147 0.771344 17.0539 11.0383 1.62009 2.77793 -5.27401 0.00718761 0.0090522 0.101742 
56 2 0 -1 1.73318 3.24648 15.7547 13.932 2.35509 -1.31339 -2.87978 0.016717 -0.0598687 0.0415024 
747 1 1 0 0 4.9612 18.529 11.1413 0.219705 0.154906 0.277998 0 -0.260121 0.0803903 
575 1 1 0 0 2.49937 16.4604 13.8313 -0.0758998 -0.0111553 -0.0531839 0 -0.230512 0.0046841 
680 2 0 -1 1.7328 3.54316 16.0971 10.4595 0.146507 6.49597 1.92888 -0.0149224 -0.0196482 0.122495 
99 1 1 0 0 0.260073 17.6016 14.6841 -0.0466771 -0.18729 -0.185833 0 -0.332785 0.038591 
581 1 1 0 0 3.06612 16.2123 10.1676 -0.0166825 -0.234211 -0.010618 0 -0.328912 0.0296977 
650 2 0 1 1.68351 2.99039 15.7049 14.8828 0.377284 -0.660533 -2.60037 0.00317866 -0.0478681 0.0195731 
422 2 0 1 1.70693 1.6764 18.1851 13.2363 0.87155 -0.273213 3.28285 -0.044232 0.0265437 0.0309647 
840 2 0 -1 1.82771 6.51061 15.7082 13.0565 0.423861 2.10414 3.98379 -0.000212888 0.13714 0.0546023 
424 2 0 -1 1.63635 3.4033 18.9046 14.9614 2.97757 -3.89411 -1.00755 0.0576865 0.00827574 0.066788 
507 1 1 0 0 4.18739 15.7079 15.2057 0.109441 0.257086 0.171751 0 -0.290838 0.057824 
246 2 0 1 1.63806 5.8709 17.3932 17.7437 3.33894 -1.00494 2.55072 -0.0119359 -0.0544426 0.0497681 
705 1 1 0 0 3.09762 18.035 15.4759 0.119297 0.244802 -0.144816 0 -0.284989 0.051138 
841 1 1 0 0 5.06827 15.8931 19.5318 -0.0960267 -0.0372077 0.0620986 0 -0.257563 0.00777396 
172 2 0 -1 1.80268 0.527835 17.4209 15.7079 1.74613 -7.39761 -2.56704 0.0358423 0.093307 0.171623 
745 1 1 0 0 2.50627 19.6561 15.5188 -0.083307 0.213417 0.0617766 0 -0.370829 0.030266 
402 2 0 1 1.66897 2.51322 19.2636 15.5424 4.72601 1.5665 -6.15616 -0.01423 -0.0267319 0.167152 
515 1 1 0 0 2.4925 15.2579 19.2489 -0.181562 -0.230366 0.0939141 0 -0.257151 0.0509886 
533 1 1 0 0 2.94625 16.9095 19.6908 -0.198128 -0.0275515 -0.348947 0 -0.211993 0.0869642 
433 1 1 0 0 5.63111 19.8484 17.2676 0.106034 0.375779 0.07507 0 -0.289789 0.084981 
529 1 1 0 0 5.4912 17.6403 17.9658 -0.233824 -0.296302 0.043117 0 -0.413681 0.0775835 
52 2 0 -1 1.68528 5.74414 19.7583 17.5011 -4.15719 -3.46738 5.90616 -0.0413417 -0.0675001 0.171155 
856 2 0 -1 1.67322 5.45227 17.1221 17.9375 -5.74875 2.49363 -2.54009 -0.0198984 0.0300679 0.121906 
836 2 0 -1 1.67321 1.98999 16.2223 19.816 -1.462 -1.78969 0.167926 -0.0158533 -0.116327 0.0143156 
538 2 0 1 1.68608 1.89391 16.6305 19.7881 -0.509346 -1.50953 4.14161 -0.000459415 -0.115544 0.0525048 
403 1 1 0 0 11.2029 1.12271 0.271251 -0.165501 -0.139163 -0.0544505 0 -0.40745 0.0267281 
272 2 0 -1 1.78013 13.0646 4.75534 1.70858 -5.04238 -0.558613 4.80707 -0.0130722 0.084824 0.130244 
419 1 1 0 0 10.9579 2.35813 3.5558 -0.114324 -0.0226076 0.203662 0 -0.455034 0.0295972 
863 1 1 0 0 9.00475 0.60024 3.88812 -0.0733546 0.164236 -0.138155 0 -0.445223 0.0276523 
164 2 0 -1 1.79761 11.7772 2.59724 3.79556 0.473896 -0.442473 1.956 0.00992815 0.0920724 0.0113226 
494 2 0 1 1.79833 8.61821 2.53461 0.119214 -4.19953 -4.59933 -1.53953 -0.0284997 0.0900199 0.109752 
695 1 1 0 0 13.3633 1.42132 4.63977 0.115504 -0.213093 -0.190644 0 -0.332182 0.0511184 
429 1 1 0 0 11.22 3.81371 3.82113 0.00539032 -0.139535 0.106144 0 -0.407529 0.0165382 
459 1 1 0 0 7.68245 1.57501 2.79593 -0.0116428 -0.313049 -0.0695143 0 -0.422249 0.0553504 
61 1 1 0 0 9.67442 3.82193 0.833783 -0.283411 0.310396 -0.226297 0 -0.257785 0.122496 
617 1 1 0 0 7.81677 3.98932 0.855042 0.363136 -0.0590589 0.0928183 0 -0.384768 0.0773919 
530 2 0 1 1.73273 11.4469 2.78787 3.86058 -1.15746 -1.83021 -5.84471 -0.00746889 0.0706763 0.103591 
845 1 1 0 0 7.95734 4.4415 3.47723 -0.180678 -0.352061 0.121 0 -0.466347 0.0920461 
569 1 1 0 0 13.1176 4.98022 0.955911 0.0681615 -0.369284 0.0206147 0 -0.355201 0.0760325 
864 2 0 -1 1.76302 8.19883 1.46998 2.71714 0.207063 -0.174299 2.7311 -0.0046646 0.0828159 0.0200841 
709 1 1 0 0 8.73351 2.10735 0.184359 0.244193 0.127086 0.254497 0 -0.388655 0.0755531 
378 2 0 1 1.86335 7.88986 4.1046 2.79945 2.5206 1.11355 2.6341 0.0170901 0.0528548 0.0387488 
104 2 0 -1 1.77586 11.7603 1.00326 0.349279 -0.12074 -1.62023 0.958851 -0.00262155 0.114857 0.00949014 
728 2 0 -1 1.81453 8.3464 3.91975 0.574266 -3.11154 2.66876 2.71808 -0.0398234 0.00150674 0.0645092 
340 2 0 -1 1.69869 8.41638 0.11497 9.55937 -2.95183 -1.30934 -4.69603 -0.0485101 0.0259661 0.0866112 
379 1 1 0 0 8.70429 2.6385 6.20772 0.137725 -0.162769 0.0573583 0 -0.390933 0.0262067 
670 2 0 1 1.6506 13.2559 5.00826 10.0123 -1.80575 1.39371 1.38734 -0.0522941 0.0202137 0.0190115 