LAMMPS (11 Aug 2017)
#hydrogen

variable        sname index hydrogen
units           electron
newton          on
boundary        p p p

atom_style      electron

read_data  	    432_20.11_0.30/data.lammps
  orthogonal box = (0 0 0) to (20.1079 20.1079 20.1079)
  1 by 2 by 3 MPI processor grid
  reading atoms ...
  864 atoms

pair_style      eff/cut 20.15
pair_coeff      * *
timestep        0.005
neigh_modify	  one 20000 page 200000

#comm_modify	  vel yes
group           at type 1
432 atoms in group at
group		        el type 2
432 atoms in group el

thermo          100

# dump            1 all cfg 10000 output/all/all.*.cfg mass type xs ys zs
# dump_modify     1 element C H

# dump            4  el cfg 10000 output/all/el.*.cfg mass type xs ys zs
# dump_modify     4 element C H

compute         1a all property/atom spin eradius ervel
dump            2 all custom 1000 output/all/all.*.lammpstrj id type q c_1a[1] c_1a[2] x y z vx vy vz c_1a[3]

fix		          1 all nve/eff
# fix             2 all nvt/eff temp 40000.0 40000.0 100.0
fix 		        2 all temp/rescale/eff 100 40000 40000 0.02 1.0

# compute       eff_energy components

compute         effTemp all temp/eff
compute         energies all pair eff/cut
variable        eke equal c_energies[1]
variable        epauli equal c_energies[2]
variable        ecoul equal c_energies[3]
variable        erres equal c_energies[4]

thermo_style    custom step pe temp press vol v_eke v_epauli v_ecoul v_erres lx
thermo_modify	temp effTemp

dump            3 all xyz 1000 ${sname}.xyz
dump            3 all xyz 1000 hydrogen.xyz


run		          50000
Neighbor list info ...
  update every 1 steps, delay 10 steps, check yes
  max neighbors/atom: 20000, page size: 200000
  master list distance cutoff = 22.15
  ghost atom cutoff = 22.15
  binsize = 11.075, bins = 2 2 2
  1 neighbor lists, perpetual/occasional/extra = 1 0 0
  (1) pair eff/cut, perpetual
      attributes: half, newton on
      pair build: half/bin/atomonly/newton
      stencil: half/bin/3d/newton
      bin: standard
Per MPI rank memory allocation (min/avg/max) = 11.22 | 11.6 | 11.98 Mbytes
Step PotEng Temp Press Volume v_eke v_epauli v_ecoul v_erres Lx 
       0   -158.20955            0 2.5440749e+11     8130.141    194.86291    45.854649    -398.9271            0    20.107868 
     100   -163.69855        40000 4.4735727e+11     8130.141    183.91243    45.807913    -393.4189            0    20.107868 
     200   -127.86597        40000 1.9583315e+11     8130.141    283.39272    20.521779   -431.78047            0    20.107868 
     300   -96.714174        40000 3.5410913e+11     8130.141    206.84504    67.749221   -371.30844            0    20.107868 
     400   -77.917076        40000 5.3701912e+11     8130.141    149.98749    108.77364    -336.6782            0    20.107868 
     500   -78.310134        40000 4.6317309e+11     8130.141    165.60844    97.642259   -341.56083            0    20.107868 
     600   -78.520348        40000 4.6373376e+11     8130.141    167.51082    98.444309   -344.47548            0    20.107868 
     700   -81.505214        40000 4.5533907e+11     8130.141    162.84523    99.791842   -344.14228            0    20.107868 
     800   -80.418607        40000 4.6860223e+11     8130.141    159.04581    103.62972   -343.09414            0    20.107868 
     900    -84.03463        40000 4.5491541e+11     8130.141    160.27084    101.56021   -345.86568            0    20.107868 
    1000   -82.499527        40000 4.7248299e+11     8130.141    155.04261    106.46903   -344.01117            0    20.107868 
    1100   -84.398764        40000 4.5945707e+11     8130.141     154.1692    104.29431   -342.86228            0    20.107868 
    1200   -80.099551        40000 4.6620041e+11     8130.141     156.8217    105.37972   -342.30097            0    20.107868 
    1300   -80.865915        40000 4.6451336e+11     8130.141    157.60333    104.68598   -343.15523            0    20.107868 
    1400   -80.351806        40000 4.5230528e+11     8130.141    162.43632    101.24166   -344.02979            0    20.107868 
    1500    -79.55807        40000 4.7823711e+11     8130.141    155.70819     105.6286   -340.89486            0    20.107868 
    1600    -74.08226        40000 4.5375475e+11     8130.141    161.65673    102.67687   -338.41586            0    20.107868 
    1700   -77.177381        40000 4.6112131e+11     8130.141    161.92516    101.81854   -340.92109            0    20.107868 
    1800   -76.415877        40000 4.8212346e+11     8130.141    163.44528    103.40383   -343.26499            0    20.107868 
    1900   -75.774321        40000 4.7969213e+11     8130.141    164.13664    103.53865   -343.44961            0    20.107868 
    2000   -77.432953        40000 4.6725692e+11     8130.141    164.94138    102.99683   -345.37116            0    20.107868 
    2100   -75.316415        40000 4.7078918e+11     8130.141    164.27648    104.15503   -343.74793            0    20.107868 
    2200   -78.250695        40000 4.5987096e+11     8130.141    166.65618    100.36075   -345.26762            0    20.107868 
    2300   -78.933769        40000 4.678811e+11     8130.141    160.49238    103.51633   -342.94248            0    20.107868 
    2400   -75.571597        40000 4.6607465e+11     8130.141    164.58585    104.27676   -344.43421            0    20.107868 
    2500    -80.03307        40000 4.7529591e+11     8130.141    160.57506    103.83265   -344.44078            0    20.107868 
    2600   -81.879624        40000 4.5847186e+11     8130.141    167.74457    97.536548   -347.16074            0    20.107868 
    2700    -83.15481        40000 4.6401504e+11     8130.141    167.63974    99.156757    -349.9513            0    20.107868 
    2800   -82.787077        40000 4.5412316e+11     8130.141    167.81232    98.466908   -349.06631            0    20.107868 
    2900   -82.489427        40000 4.6319567e+11     8130.141    163.30225    99.270364   -345.06205            0    20.107868 
    3000   -84.354428        40000 4.5987632e+11     8130.141    166.33452    98.125094   -348.81404            0    20.107868 
    3100   -86.373678        40000 4.4957606e+11     8130.141    173.23659       91.738   -351.34827            0    20.107868 
    3200   -82.371831        40000 4.7635902e+11     8130.141     160.9672    101.43317    -344.7722            0    20.107868 
    3300   -85.123988        40000 4.477049e+11     8130.141    170.97702    93.766702   -349.86771            0    20.107868 
    3400   -84.409156        40000 4.6059827e+11     8130.141    166.17509    99.065389   -349.64964            0    20.107868 
    3500   -85.900498        40000 4.4926235e+11     8130.141     168.5117    96.101938   -350.51414            0    20.107868 
    3600   -84.752429        40000 4.5930525e+11     8130.141    168.99193    94.160735    -347.9051            0    20.107868 
    3700   -86.232752        40000 4.7263982e+11     8130.141    164.87543    97.983335   -349.09152            0    20.107868 
    3800   -85.276541        40000 4.5701495e+11     8130.141    170.98081    94.624174   -350.88153            0    20.107868 
    3900      -85.995        40000 4.4198726e+11     8130.141    173.13134     92.50561   -351.63195            0    20.107868 
    4000   -83.451469        40000 4.6208794e+11     8130.141    173.12457    94.641752   -351.21779            0    20.107868 
    4100   -85.370779        40000 4.5779291e+11     8130.141      173.972    92.119292   -351.46207            0    20.107868 
    4200   -85.115534        40000 4.5985379e+11     8130.141     167.2177     96.96431   -349.29755            0    20.107868 
    4300   -84.038011        40000 4.4581932e+11     8130.141    173.85569    94.517012   -352.41071            0    20.107868 
    4400   -88.229335        40000 4.287833e+11     8130.141    183.51271    87.772338   -359.51439            0    20.107868 
    4500   -85.537408        40000 4.4579382e+11     8130.141    173.16067    93.462596   -352.16068            0    20.107868 
    4600   -86.489025        40000 4.5430224e+11     8130.141    172.12147    92.157465   -350.76796            0    20.107868 
    4700   -88.111696        40000  4.44952e+11     8130.141    176.28316    89.829404   -354.22426            0    20.107868 
    4800   -90.127879        40000 4.4307748e+11     8130.141    181.89017    85.324914   -357.34297            0    20.107868 
    4900   -90.062102        40000 4.5417995e+11     8130.141    174.18704    90.226317   -354.47546            0    20.107868 
    5000   -90.018426        40000 4.3105203e+11     8130.141    179.67015    86.078744   -355.76732            0    20.107868 
    5100   -90.632525        40000 4.3227556e+11     8130.141    177.74279    90.495936   -358.87125            0    20.107868 
    5200   -88.609814        40000 4.5488269e+11     8130.141    174.12768    91.952207    -354.6897            0    20.107868 
    5300   -88.598623        40000 4.6611471e+11     8130.141    168.01893    94.509782   -351.12734            0    20.107868 
    5400   -90.786799        40000 4.1750033e+11     8130.141    183.44653    84.274668     -358.508            0    20.107868 
    5500   -89.533047        40000 4.356934e+11     8130.141    176.50398    88.192026   -354.22906            0    20.107868 
    5600   -90.210266        40000 4.5458109e+11     8130.141    171.98399     91.73599   -353.93025            0    20.107868 
    5700   -90.679932        40000 4.4706307e+11     8130.141    175.43262    89.092083   -355.20464            0    20.107868 
    5800   -91.673316        40000 4.4130574e+11     8130.141    177.02825    85.839169   -354.54073            0    20.107868 
    5900   -88.432966        40000 4.500595e+11     8130.141    176.76794      89.9352    -355.1361            0    20.107868 
    6000   -91.654894        40000 4.4397297e+11     8130.141     176.6671    89.066773   -357.38876            0    20.107868 
    6100   -91.087196        40000 4.5274034e+11     8130.141     174.7689    89.428142   -355.28423            0    20.107868 
    6200   -90.857659        40000 4.5079668e+11     8130.141    174.98507    90.239341   -356.08207            0    20.107868 
    6300   -90.229032        40000 4.4723897e+11     8130.141    176.49136    89.435965   -356.15636            0    20.107868 
    6400   -88.663814        40000 4.5806895e+11     8130.141     175.4051    90.292111   -354.36103            0    20.107868 
    6500   -89.770501        40000 4.5432697e+11     8130.141    177.84643    89.445041   -357.06198            0    20.107868 
    6600   -94.625724        40000 4.3480877e+11     8130.141    185.11489    82.623401   -362.36402            0    20.107868 
    6700   -95.061034        40000 4.3980353e+11     8130.141    183.05543    83.287386   -361.40385            0    20.107868 
    6800    -92.53534        40000 4.5993947e+11     8130.141    177.27002    89.412994   -359.21835            0    20.107868 
    6900   -92.730131        40000 4.3746303e+11     8130.141    178.24642     87.41299   -358.38954            0    20.107868 
    7000   -93.339924        40000 4.6600056e+11     8130.141    170.36831    92.652482   -356.36071            0    20.107868 
    7100   -91.191223        40000 4.428508e+11     8130.141    180.56898    85.471015   -357.23122            0    20.107868 
    7200   -90.819029        40000 4.6062947e+11     8130.141    175.85638    89.553787    -356.2292            0    20.107868 
    7300   -92.382636        40000 4.5442455e+11     8130.141    177.73911    87.577761    -357.6995            0    20.107868 
    7400   -92.895335        40000 4.4027683e+11     8130.141    186.80703    83.523609   -363.22597            0    20.107868 
    7500   -92.703469        40000 4.6574166e+11     8130.141     176.0999    87.909983   -356.71335            0    20.107868 
    7600   -91.939488        40000 4.4490721e+11     8130.141    181.49617    87.163684   -360.59934            0    20.107868 
    7700   -92.494494        40000 4.2967373e+11     8130.141    184.56058    84.478993   -361.53407            0    20.107868 
    7800   -93.304227        40000 4.4221318e+11     8130.141    182.11519    85.948959   -361.36838            0    20.107868 
    7900    -94.06734        40000 4.4210993e+11     8130.141    186.07871    83.924214   -364.07026            0    20.107868 
    8000   -93.828697        40000 4.3536168e+11     8130.141    183.09703    84.571538   -361.49727            0    20.107868 
    8100   -94.127109        40000  4.33163e+11     8130.141    182.81446    84.718994   -361.66056            0    20.107868 
    8200   -94.057921        40000 4.3252199e+11     8130.141    184.19425    83.768422   -362.02059            0    20.107868 
    8300   -93.808969        40000 4.4993652e+11     8130.141    185.02378    84.257414   -363.09016            0    20.107868 
    8400   -96.429738        40000 4.5003391e+11     8130.141    189.63379    83.619764   -369.68329            0    20.107868 
    8500    -92.85209        40000 4.4268684e+11     8130.141    187.46786     82.61099   -362.93094            0    20.107868 
    8600   -93.075349        40000 4.3155219e+11     8130.141     185.3164    83.546436   -361.93819            0    20.107868 
    8700   -93.935126        40000 4.4852634e+11     8130.141    183.65542    86.231691   -363.82224            0    20.107868 
    8800   -93.906747        40000 4.3787696e+11     8130.141    182.63495    84.150937   -360.69263            0    20.107868 
    8900   -95.283787        40000 4.4338259e+11     8130.141    187.51391    82.977115   -365.77481            0    20.107868 
    9000   -95.884915        40000 4.4435755e+11     8130.141    183.24076    83.731025    -362.8567            0    20.107868 
    9100   -95.339615        40000 4.4025605e+11     8130.141    187.32678    81.931688   -364.59808            0    20.107868 
    9200   -96.787851        40000 4.3935885e+11     8130.141    184.19365    81.982327   -362.96383            0    20.107868 
    9300   -97.256506        40000 4.4043835e+11     8130.141    188.29737    82.440701   -367.99457            0    20.107868 
    9400   -96.008457        40000 4.444038e+11     8130.141    181.61441    86.728003   -364.35087            0    20.107868 
    9500   -96.615121        40000 4.453004e+11     8130.141    182.62073     84.71548   -363.95133            0    20.107868 
    9600   -94.199685        40000 4.3526371e+11     8130.141    184.88681    83.153023   -362.23952            0    20.107868 
    9700   -95.611127        40000 4.4093581e+11     8130.141    185.87524    82.767615   -364.25399            0    20.107868 
    9800   -97.408434        40000 4.4687258e+11     8130.141    184.26201    81.550337   -363.22078            0    20.107868 
    9900   -97.667494        40000 4.2411426e+11     8130.141    188.78789    79.513248   -365.96863            0    20.107868 
   10000   -99.211503        40000 4.3497307e+11     8130.141    187.39186    81.087919   -367.69128            0    20.107868 
   10100   -97.862623        40000 4.2864907e+11     8130.141       188.86     78.47719   -365.19982            0    20.107868 
   10200   -96.485263        40000 4.6193743e+11     8130.141    179.44967    86.379228   -362.31416            0    20.107868 
   10300   -95.999963        40000 4.4436913e+11     8130.141    183.46205    84.222737   -363.68475            0    20.107868 
   10400   -96.012332        40000 4.2036884e+11     8130.141     188.6962    79.141322   -363.84985            0    20.107868 
   10500   -98.126465        40000 4.2882189e+11     8130.141    184.48221    81.373596   -363.98227            0    20.107868 
   10600   -96.577325        40000 4.4025879e+11     8130.141    181.55777    85.322846   -363.45794            0    20.107868 
   10700   -97.882745        40000 4.3968866e+11     8130.141    183.41285    81.050867   -362.34646            0    20.107868 
   10800    -97.05128        40000 4.3691967e+11     8130.141    182.77967    82.313518   -362.14446            0    20.107868 
   10900   -98.965572        40000 4.2200157e+11     8130.141    187.30833    80.279559   -366.55347            0    20.107868 
   11000   -97.393615        40000 4.3305693e+11     8130.141    184.48637    82.473442   -364.35343            0    20.107868 
   11100   -97.065462        40000 4.3437186e+11     8130.141    184.12086    81.615635   -362.80196            0    20.107868 
   11200   -96.539883        40000 4.4739446e+11     8130.141     182.0941    83.878418    -362.5124            0    20.107868 
   11300   -96.168348        40000 4.4374769e+11     8130.141    180.47354    85.012375   -361.65427            0    20.107868 
   11400   -96.202052        40000 4.2789236e+11     8130.141    185.27893    80.425667   -361.90665            0    20.107868 
   11500   -96.730939        40000 4.4077327e+11     8130.141    181.96275    84.242908    -362.9366            0    20.107868 
   11600   -96.352512        40000 4.3858977e+11     8130.141    183.83961    81.413898   -361.60602            0    20.107868 
   11700   -96.123731        40000 4.2570456e+11     8130.141    185.79802    82.819449    -364.7412            0    20.107868 
   11800   -99.795223        40000 4.2148119e+11     8130.141    188.00228     79.56991   -367.36741            0    20.107868 
   11900   -97.098763        40000 4.4275972e+11     8130.141    185.74406    83.221142   -366.06396            0    20.107868 
   12000   -97.189679        40000 4.2292026e+11     8130.141    189.70129    78.451493   -365.34246            0    20.107868 
   12100   -96.339158        40000 4.3737784e+11     8130.141    181.71933    84.846988   -362.90548            0    20.107868 
   12200   -98.084646        40000 4.3768482e+11     8130.141    185.32567    81.428236   -364.83856            0    20.107868 
   12300    -96.95098        40000 4.3564694e+11     8130.141    182.38036    82.492622   -361.82396            0    20.107868 
   12400   -96.590578        40000 4.2477106e+11     8130.141    186.33968    81.278606   -364.20887            0    20.107868 
   12500   -97.689243        40000 4.2331793e+11     8130.141    187.39186    80.148638   -365.22974            0    20.107868 
   12600   -96.563237        40000 4.2696509e+11     8130.141    180.88506    82.504326   -359.95263            0    20.107868 
   12700   -96.449842        40000 4.3899404e+11     8130.141    178.93259    86.536175    -361.9186            0    20.107868 
   12800   -98.382608        40000 4.4097329e+11     8130.141    181.84181    83.033982    -363.2584            0    20.107868 
   12900   -98.895911        40000 4.2182933e+11     8130.141    187.01823    79.864581   -365.77873            0    20.107868 
   13000   -97.431277        40000 4.2627047e+11     8130.141    186.23026    81.346106   -365.00765            0    20.107868 
   13100   -96.075497        40000 4.3236205e+11     8130.141    181.34343    84.123102   -361.54203            0    20.107868 
   13200   -94.407321        40000 4.4119528e+11     8130.141    180.95909    84.743861   -360.11027            0    20.107868 
   13300   -96.682881        40000 4.3612437e+11     8130.141    181.35167    83.550402   -361.58495            0    20.107868 
   13400   -95.231348        40000 4.4719119e+11     8130.141    181.50887    84.235819   -360.97604            0    20.107868 
   13500   -95.411057        40000 4.3826508e+11     8130.141    182.83029    83.641921   -361.88327            0    20.107868 
   13600   -96.896763        40000 4.2398784e+11     8130.141    184.74247     81.73199   -363.37122            0    20.107868 
   13700   -97.987203        40000 4.2880098e+11     8130.141    184.88915    82.705406   -365.58176            0    20.107868 
   13800   -97.020257        40000 4.1695729e+11     8130.141    190.36828    79.605045   -366.99358            0    20.107868 
   13900   -95.928712        40000 4.2579031e+11     8130.141    186.04407    81.085126   -363.05791            0    20.107868 
   14000   -96.867598        40000 4.4239702e+11     8130.141    182.25267    83.423655   -362.54393            0    20.107868 
   14100   -97.834523        40000 4.2997376e+11     8130.141    189.83152    79.747869   -367.41391            0    20.107868 
   14200   -95.949828        40000 4.3317811e+11     8130.141    186.61041    81.302204   -363.86244            0    20.107868 
   14300    -96.97034        40000 4.3359103e+11     8130.141    186.16435    81.076223   -364.21092            0    20.107868 
   14400   -96.518045        40000 4.4865128e+11     8130.141    183.39837    84.907856   -364.82427            0    20.107868 
   14500   -97.713207        40000 4.3407891e+11     8130.141    187.09277    80.314621   -365.12059            0    20.107868 
   14600   -98.425682        40000 4.3005057e+11     8130.141    187.34089    79.024189   -364.79076            0    20.107868 
   14700   -96.988289        40000 4.4007041e+11     8130.141    186.29256    82.080524   -365.36137            0    20.107868 
   14800   -94.597544        40000 4.4633519e+11     8130.141    180.03454    85.528341   -360.16042            0    20.107868 
   14900   -96.185597        40000 4.3427625e+11     8130.141    182.74999    83.454679   -362.39026            0    20.107868 
   15000   -96.725906        40000 4.4967273e+11     8130.141    180.01206    85.158734    -361.8967            0    20.107868 
   15100   -94.875247        40000 4.4826912e+11     8130.141    179.58551    85.850565   -360.31132            0    20.107868 
   15200   -93.193422        40000 4.4323935e+11     8130.141     183.6273    85.275857   -362.09658            0    20.107868 
   15300   -96.401494        40000 4.3819761e+11     8130.141    185.92529    82.806986   -365.13377            0    20.107868 
   15400    -96.33251        40000 4.2451681e+11     8130.141    186.93259    82.341725   -365.60682            0    20.107868 
   15500   -94.893783        40000 4.3185897e+11     8130.141    188.07766    82.369244   -365.34068            0    20.107868 
   15600   -97.015099        40000 4.3002088e+11     8130.141    183.25593    82.307885   -362.57891            0    20.107868 
   15700   -95.550442        40000 4.3884043e+11     8130.141    182.05407    84.572717   -362.17723            0    20.107868 
   15800   -97.394584        40000 4.3674292e+11     8130.141    184.54636    81.585663   -363.52661            0    20.107868 
   15900   -93.724977        40000 4.4460976e+11     8130.141    183.71829    84.288473   -361.73174            0    20.107868 
   16000    -95.42546        40000 4.3018847e+11     8130.141    185.50696    82.260973   -363.19339            0    20.107868 
   16100   -97.547885        40000 4.2299984e+11     8130.141     192.5732    79.081263   -369.20235            0    20.107868 
   16200   -96.638556        40000 4.4148947e+11     8130.141     185.9011    82.882014   -365.42167            0    20.107868 
   16300   -97.087949        40000 4.310292e+11     8130.141    187.50789    81.086712   -365.68255            0    20.107868 
   16400   -97.612592        40000 4.3365187e+11     8130.141    187.57143    81.444008   -366.62803            0    20.107868 
   16500   -98.604969        40000 4.4715592e+11     8130.141    185.86866    83.693531   -368.16716            0    20.107868 
   16600   -96.405508        40000 4.426112e+11     8130.141    183.77234    82.889037   -363.06688            0    20.107868 
   16700    -96.96966        40000 4.3373543e+11     8130.141    183.83966    82.192067   -363.00139            0    20.107868 
   16800   -98.302734        40000 4.2933538e+11     8130.141    181.55989    82.049599   -361.91223            0    20.107868 
   16900   -96.991464        40000 4.3246933e+11     8130.141    183.15247    83.034184   -363.17812            0    20.107868 
   17000   -97.398681        40000 4.239409e+11     8130.141     187.9929    79.597296   -364.98887            0    20.107868 
   17100   -95.627758        40000 4.5060692e+11     8130.141    184.27509    84.565516   -364.46836            0    20.107868 
   17200   -96.033923        40000 4.4626223e+11     8130.141    183.80543    82.898894   -362.73824            0    20.107868 
   17300   -94.934823        40000 4.514231e+11     8130.141    181.65605    83.234042   -359.82491            0    20.107868 
   17400   -97.781962        40000 4.2682928e+11     8130.141    190.18942    77.558999   -365.53038            0    20.107868 
   17500   -97.514177        40000 4.4698226e+11     8130.141    182.95681    82.703591   -363.17458            0    20.107868 
   17600   -95.522382        40000 4.3651324e+11     8130.141    185.84635    82.745563    -364.1143            0    20.107868 
   17700   -96.267786        40000 4.3039161e+11     8130.141    188.61383    80.251604   -365.13322            0    20.107868 
   17800    -95.87679        40000 4.3106605e+11     8130.141    188.82518    81.522484   -366.22445            0    20.107868 
   17900   -95.052873        40000 4.5072065e+11     8130.141    178.66519    86.696011   -360.41408            0    20.107868 
   18000   -97.536838        40000 4.4021398e+11     8130.141    185.36486    79.395595    -362.2973            0    20.107868 
   18100   -97.512581        40000 4.2757978e+11     8130.141    187.80971    79.133845   -364.45613            0    20.107868 
   18200   -95.449068        40000 4.352662e+11     8130.141    183.30449    84.482737   -363.23629            0    20.107868 
   18300   -97.819264        40000  4.09081e+11     8130.141    189.99645    77.912699   -365.72841            0    20.107868 
   18400   -95.047245        40000 4.3963199e+11     8130.141    178.42594     85.68646   -359.15964            0    20.107868 
   18500   -96.127664        40000  4.38973e+11     8130.141    178.82297    84.829306   -359.77994            0    20.107868 
   18600    -99.22894        40000 4.3368395e+11     8130.141    184.61244    80.966703   -364.80808            0    20.107868 
   18700   -97.784243        40000 4.3542445e+11     8130.141    188.80407    80.086939   -366.67525            0    20.107868 
   18800   -98.081873        40000 4.3751441e+11     8130.141    192.39739    79.913664   -370.39292            0    20.107868 
   18900   -96.945098        40000 4.2970969e+11     8130.141    187.81902    81.030465   -365.79458            0    20.107868 
   19000    -93.68173        40000 4.4609531e+11     8130.141    180.33679    86.035236   -360.05376            0    20.107868 
   19100   -95.794827        40000 4.2653632e+11     8130.141    186.55556    81.871186   -364.22158            0    20.107868 
   19200   -96.287927        40000 4.2676867e+11     8130.141    187.55833    82.993166   -366.83942            0    20.107868 
   19300   -97.297117        40000 4.3973272e+11     8130.141     185.2771    81.090734   -363.66495            0    20.107868 
   19400   -98.537242        40000 4.3937619e+11     8130.141    187.34843    80.491215   -366.37689            0    20.107868 
   19500   -97.324308        40000 4.3408693e+11     8130.141    186.78259    82.441361   -366.54826            0    20.107868 
   19600   -97.949305        40000 4.4038845e+11     8130.141    185.20045    82.115217   -365.26497            0    20.107868 
   19700   -98.836706        40000 4.2226499e+11     8130.141    190.60279    78.052654   -367.49215            0    20.107868 
   19800   -98.884858        40000 4.4443004e+11     8130.141    186.47747    81.364498   -366.72682            0    20.107868 
   19900   -99.889298        40000 4.2455963e+11     8130.141    186.78441    78.370364   -365.04407            0    20.107868 
   20000   -98.245396        40000 4.2358684e+11     8130.141    185.45534    80.951329   -364.65207            0    20.107868 
   20100   -99.343414        40000 4.3102682e+11     8130.141    185.08391    82.214282   -366.64161            0    20.107868 
   20200   -99.748739        40000 4.4639322e+11     8130.141    183.12298    82.573719   -365.44544            0    20.107868 
   20300    -98.47045        40000 4.3513993e+11     8130.141    188.12168    80.188217   -366.78035            0    20.107868 
   20400   -98.384486        40000 4.2962905e+11     8130.141      184.626    81.113995   -364.12448            0    20.107868 
   20500   -98.490289        40000 4.2639948e+11     8130.141    188.32057    80.682669   -367.49353            0    20.107868 
   20600   -99.996891        40000 4.2385952e+11     8130.141    190.16089    77.035149   -367.19293            0    20.107868 
   20700   -97.554224        40000 4.3433818e+11     8130.141    182.07957    82.862236   -362.49603            0    20.107868 
   20800   -95.146714        40000 4.2941632e+11     8130.141    186.57226    80.670168   -362.38915            0    20.107868 
   20900   -97.429349        40000 4.3903861e+11     8130.141    184.82501    81.401917   -363.65628            0    20.107868 
   21000   -100.15719        40000 4.2103192e+11     8130.141    189.01487     77.19415   -366.36621            0    20.107868 
   21100    -101.1929        40000 4.3664363e+11     8130.141    183.35255    79.055058   -363.60051            0    20.107868 
   21200   -100.16856        40000 4.2485706e+11     8130.141    189.60316    77.611806   -367.38353            0    20.107868 
   21300   -98.988192        40000 4.3755309e+11     8130.141    186.52043    80.181375   -365.68999            0    20.107868 
   21400   -100.94668        40000 4.2595286e+11     8130.141    190.63288    76.285238   -367.86481            0    20.107868 
   21500   -98.401991        40000 4.3230999e+11     8130.141    183.82999    81.638702   -363.87068            0    20.107868 
   21600   -97.373695        40000 4.3312625e+11     8130.141    184.09867     80.63074    -362.1031            0    20.107868 
   21700   -97.950355        40000 4.3022336e+11     8130.141    185.00999     80.98697   -363.94732            0    20.107868 
   21800   -98.195129        40000 4.2916238e+11     8130.141    185.60547    81.817799    -365.6184            0    20.107868 
   21900   -99.747824        40000 4.3573036e+11     8130.141    182.89076    81.263313    -363.9019            0    20.107868 
   22000   -98.820945        40000 4.2250623e+11     8130.141    182.56829       79.753   -361.14223            0    20.107868 
   22100   -98.886661        40000 4.2485373e+11     8130.141    187.11369     80.43097   -366.43133            0    20.107868 
   22200   -96.587266        40000 4.3466253e+11     8130.141    182.10942    82.442482   -361.13917            0    20.107868 
   22300   -98.013351        40000 4.3653338e+11     8130.141    188.86272    82.092966   -368.96904            0    20.107868 
   22400   -97.331079        40000 4.4239746e+11     8130.141    185.31361    82.155912    -364.8006            0    20.107868 
   22500   -96.285074        40000 4.4013132e+11     8130.141     188.1158     82.63028   -367.03116            0    20.107868 
   22600   -95.132163        40000 4.3404242e+11     8130.141    184.99313    80.350201    -360.4755            0    20.107868 
   22700   -96.654055        40000 4.3834249e+11     8130.141    186.05334    83.073676   -365.78107            0    20.107868 
   22800   -98.175315        40000 4.2500131e+11     8130.141    191.54183    78.614096   -368.33124            0    20.107868 
   22900   -100.09264        40000 4.2956675e+11     8130.141    184.45669    79.985377    -364.5347            0    20.107868 
   23000   -97.732709        40000 4.3700582e+11     8130.141    183.35994    82.087297   -363.17994            0    20.107868 
   23100   -98.343233        40000 4.3199556e+11     8130.141    185.00606     80.44343   -363.79272            0    20.107868 
   23200   -99.013564        40000 4.3163881e+11     8130.141    188.35202    79.972347   -367.33793            0    20.107868 
   23300   -99.274315        40000 4.3362484e+11     8130.141    187.83363    79.873412   -366.98136            0    20.107868 
   23400   -99.309689        40000 4.2712499e+11     8130.141    189.00479    79.187844   -367.50232            0    20.107868 
   23500   -98.940665        40000 4.3627556e+11     8130.141    187.32913    80.715532   -366.98533            0    20.107868 
   23600   -97.278857        40000 4.5106621e+11     8130.141    178.63038    85.667399   -361.57664            0    20.107868 
   23700   -97.058202        40000 4.2655547e+11     8130.141    189.16668    80.430035   -366.65492            0    20.107868 
   23800   -99.490879        40000 4.3669453e+11     8130.141    187.76244    80.004236   -367.25755            0    20.107868 
   23900   -100.11944        40000 4.4446251e+11     8130.141    186.26726    81.804534   -368.19124            0    20.107868 
   24000   -100.44573        40000  4.36003e+11     8130.141    188.90792    77.710607   -367.06425            0    20.107868 
   24100   -100.90663        40000 4.368064e+11     8130.141    185.60726    81.236115   -367.75001            0    20.107868 
   24200   -100.57603        40000 4.1692078e+11     8130.141    193.83515    75.794241   -370.20543            0    20.107868 
   24300   -101.47888        40000 4.2096451e+11     8130.141    187.50934    79.131307   -368.11952            0    20.107868 
   24400   -99.586683        40000 4.2089235e+11     8130.141    188.52896    78.624785   -366.74043            0    20.107868 
   24500   -99.366932        40000 4.2474837e+11     8130.141     190.4662    79.747164    -369.5803            0    20.107868 
   24600   -100.61247        40000 4.3617964e+11     8130.141    190.47372    78.772908    -369.8591            0    20.107868 
   24700   -99.826003        40000 4.2556418e+11     8130.141    190.33013     77.91447    -368.0706            0    20.107868 
   24800   -99.084864        40000 4.2758171e+11     8130.141    184.92279    80.022267   -364.02992            0    20.107868 
   24900   -99.705216        40000 4.2575985e+11     8130.141    186.89414    77.675966   -364.27532            0    20.107868 
   25000   -100.05449        40000 4.3834412e+11     8130.141    187.08048    79.549494   -366.68446            0    20.107868 
   25100   -99.075209        40000 4.2791417e+11     8130.141    188.82074    78.143963   -366.03992            0    20.107868 
   25200   -97.496404        40000 4.3145257e+11     8130.141    191.64735    78.040788   -367.18455            0    20.107868 
   25300   -99.352516        40000 4.351914e+11     8130.141    189.38518    78.530676   -367.26837            0    20.107868 
   25400   -99.275815        40000 4.4179633e+11     8130.141    184.13593    81.004896   -364.41664            0    20.107868 
   25500   -99.386921        40000 4.3558444e+11     8130.141    187.85354    78.291703   -365.53217            0    20.107868 
   25600   -98.612326        40000 4.3196366e+11     8130.141    188.12917    77.808888   -364.55038            0    20.107868 
   25700   -100.07624        40000 4.3699802e+11     8130.141    189.60287    80.419683   -370.09879            0    20.107868 
   25800   -102.63978        40000 4.1955175e+11     8130.141     192.1517    76.791282   -371.58276            0    20.107868 
   25900   -101.77241        40000 4.3027725e+11     8130.141    187.08527    80.053225    -368.9109            0    20.107868 
   26000    -101.9466        40000 4.1955156e+11     8130.141    193.53022    75.300231   -370.77705            0    20.107868 
   26100   -101.11848        40000 4.2920201e+11     8130.141    193.41788    78.603784   -373.14015            0    20.107868 
   26200   -99.913325        40000  4.20168e+11     8130.141    194.87203    77.018441   -371.80379            0    20.107868 
   26300   -100.52749        40000 4.3359721e+11     8130.141    192.49149    79.284182   -372.30315            0    20.107868 
   26400   -100.76313        40000 4.4154283e+11     8130.141    190.51024    78.611946   -369.88532            0    20.107868 
   26500   -100.82937        40000 4.3253891e+11     8130.141    189.26162    77.491768   -367.58275            0    20.107868 
   26600   -100.31853        40000 4.2155959e+11     8130.141     193.1745    76.763903   -370.25693            0    20.107868 
   26700   -99.269595        40000 4.3138293e+11     8130.141    185.17215    80.661165   -365.10291            0    20.107868 
   26800   -99.432221        40000 4.2459327e+11     8130.141    189.25752    77.669472   -366.35922            0    20.107868 
   26900    -101.4925        40000 4.2167958e+11     8130.141     190.6574    76.207331   -368.35723            0    20.107868 
   27000   -98.237477        40000 4.3724761e+11     8130.141    185.72036    79.696906   -363.65475            0    20.107868 
   27100   -98.750153        40000 4.3380577e+11     8130.141    188.18328    81.120836   -368.05426            0    20.107868 
   27200   -99.609469        40000 4.3038189e+11     8130.141    188.60276    78.150747   -366.36297            0    20.107868 
   27300   -98.475751        40000 4.2716542e+11     8130.141    190.53083    78.477294   -367.48387            0    20.107868 
   27400   -99.608003        40000 4.3273098e+11     8130.141     187.8228    79.159622   -366.59042            0    20.107868 
   27500   -99.522802        40000 4.367029e+11     8130.141    188.15769    80.449499   -368.12999            0    20.107868 
   27600   -98.813032        40000 4.3649939e+11     8130.141    188.11972    78.894976   -365.82773            0    20.107868 
   27700   -98.972798        40000 4.3165681e+11     8130.141    190.57402    77.707985    -367.2548            0    20.107868 
   27800   -99.173299        40000 4.2949178e+11     8130.141    189.80448    78.580852   -367.55863            0    20.107868 
   27900   -100.07163        40000 4.3142227e+11     8130.141     188.7236    79.995134   -368.79036            0    20.107868 
   28000   -100.15222        40000 4.4101859e+11     8130.141    188.74622    78.562135   -367.46057            0    20.107868 
   28100   -100.33822        40000 4.3536526e+11     8130.141    190.97935    77.471139   -368.78871            0    20.107868 
   28200   -98.862598        40000 4.2867286e+11     8130.141    189.37405    80.039085   -368.27573            0    20.107868 
   28300   -99.767188        40000 4.2459002e+11     8130.141    189.60095    76.923609   -366.29175            0    20.107868 
   28400   -98.348807        40000 4.4138227e+11     8130.141    187.03349    81.543794   -366.92609            0    20.107868 
   28500   -99.743055        40000 4.2735929e+11     8130.141    187.43646    79.882311   -367.06183            0    20.107868 
   28600   -100.43126        40000 4.333279e+11     8130.141    186.97931    78.697866   -366.10843            0    20.107868 
   28700   -100.68581        40000 4.2858463e+11     8130.141     191.6986    77.149398   -369.53381            0    20.107868 
   28800   -101.46814        40000 4.1659957e+11     8130.141    192.16917    75.636295    -369.2736            0    20.107868 
   28900   -99.632995        40000 4.2713855e+11     8130.141    191.10126    76.627024   -367.36128            0    20.107868 
   29000   -101.09397        40000 4.2388076e+11     8130.141    189.78617    76.635393   -367.51553            0    20.107868 
   29100     -98.8437        40000 4.244664e+11     8130.141     190.1711    77.414406    -366.4292            0    20.107868 
   29200   -97.766894        40000 4.2240209e+11     8130.141    190.31105    79.433555    -367.5115            0    20.107868 
   29300   -98.037153        40000 4.1382751e+11     8130.141    191.24414    80.799137   -370.08043            0    20.107868 
   29400   -99.377266        40000 4.2757097e+11     8130.141    184.54522    80.731795   -364.65428            0    20.107868 
   29500   -100.15675        40000 4.2725595e+11     8130.141    185.85465    80.511012   -366.52241            0    20.107868 
   29600   -99.318576        40000 4.2208776e+11     8130.141    193.58736    77.190423   -370.09636            0    20.107868 
   29700   -97.694711        40000 4.3102427e+11     8130.141    187.43789    81.496251   -366.62885            0    20.107868 
   29800   -97.730906        40000 4.3263058e+11     8130.141    186.59136     79.72367   -364.04594            0    20.107868 
   29900   -96.517387        40000 4.2552533e+11     8130.141    189.28487    79.728728   -365.53099            0    20.107868 
   30000   -95.651471        40000 4.3091999e+11     8130.141    185.89537     82.04301   -363.58985            0    20.107868 
   30100   -96.647717        40000 4.3417259e+11     8130.141    187.55933    82.231748    -366.4388            0    20.107868 
   30200    -98.56541        40000 4.3068787e+11     8130.141    188.83142    80.382234   -367.77906            0    20.107868 
   30300   -98.790278        40000 4.2548857e+11     8130.141    185.97045    79.305102   -364.06584            0    20.107868 
   30400   -99.434443        40000 4.3325275e+11     8130.141    186.25535    80.655363   -366.34516            0    20.107868 
   30500   -99.161086        40000 4.212912e+11     8130.141    190.06515    79.023594   -368.24983            0    20.107868 
   30600   -99.996863        40000 4.2752352e+11     8130.141    190.23066    78.373448   -368.60097            0    20.107868 
   30700   -97.827703        40000 4.2338511e+11     8130.141    198.53201    74.481617   -370.84133            0    20.107868 
   30800   -102.34069        40000 4.2147046e+11     8130.141    195.14919    73.812086   -371.30197            0    20.107868 
   30900   -98.181059        40000 4.4701263e+11     8130.141    182.89369    84.684758   -365.75951            0    20.107868 
   31000   -94.717992        40000 4.4813568e+11     8130.141    182.64293    83.641078     -361.002            0    20.107868 
   31100   -97.824452        40000 4.3792427e+11     8130.141     181.9916    82.614912   -362.43096            0    20.107868 
   31200   -98.774396        40000 4.3753836e+11     8130.141    186.62456    81.093846    -366.4928            0    20.107868 
   31300   -97.760885        40000 4.3629686e+11     8130.141    187.63099    80.021109   -365.41299            0    20.107868 
   31400    -99.38002        40000 4.3866946e+11     8130.141    189.61039    79.094579   -368.08499            0    20.107868 
   31500   -98.650807        40000 4.4130177e+11     8130.141    184.89357    81.556274   -365.10065            0    20.107868 
   31600   -98.423394        40000 4.2749377e+11     8130.141    185.43444    80.241834   -364.09967            0    20.107868 
   31700   -98.794776        40000 4.1461734e+11     8130.141    189.77038    77.551725   -366.11688            0    20.107868 
   31800    -97.52237        40000 4.3269702e+11     8130.141    185.49101    82.776617      -365.79            0    20.107868 
   31900   -96.269742        40000 4.3160261e+11     8130.141    184.46028    81.557984   -362.28801            0    20.107868 
   32000    -99.16198        40000 4.3583271e+11     8130.141    185.48724    80.512925   -365.16215            0    20.107868 
   32100   -97.672299        40000 4.2918502e+11     8130.141    183.59966    80.709081   -361.98104            0    20.107868 
   32200   -100.93825        40000 4.2588386e+11     8130.141    189.11423    76.699579   -366.75206            0    20.107868 
   32300   -99.216249        40000 4.4392778e+11     8130.141    181.86628    82.283347   -363.36588            0    20.107868 
   32400   -98.756195        40000 4.3663345e+11     8130.141    189.05788    79.341111   -367.15519            0    20.107868 
   32500   -98.638336        40000 4.1875103e+11     8130.141    190.31842    76.484707   -365.44147            0    20.107868 
   32600   -99.390449        40000 4.3562455e+11     8130.141    184.77491    80.519419   -364.68478            0    20.107868 
   32700   -99.109316        40000 4.2495581e+11     8130.141    192.19213    78.948894   -370.25034            0    20.107868 
   32800   -98.460351        40000 4.2959015e+11     8130.141    185.97438    81.770656   -366.20539            0    20.107868 
   32900   -99.861758        40000 4.2139445e+11     8130.141     186.4703     79.44615    -365.7782            0    20.107868 
   33000   -97.285497        40000 4.2601381e+11     8130.141     185.5385    80.825305    -363.6493            0    20.107868 
   33100   -99.958784        40000 4.1673914e+11     8130.141    187.34569    77.413937   -364.71841            0    20.107868 
   33200    -97.94146        40000 4.2633279e+11     8130.141    187.06922    79.889564   -364.90025            0    20.107868 
   33300   -97.253124        40000 4.3807667e+11     8130.141    184.28375    82.457812   -363.99469            0    20.107868 
   33400   -95.689972        40000 4.4519284e+11     8130.141    183.29605    80.766217   -359.75224            0    20.107868 
   33500   -95.200081        40000 4.3318553e+11     8130.141    182.79463    81.520407   -359.51512            0    20.107868 
   33600   -96.158402        40000 4.4089151e+11     8130.141    184.36833    81.800684   -362.32742            0    20.107868 
   33700   -98.432567        40000 4.3519129e+11     8130.141    183.64318    80.985948   -363.06169            0    20.107868 
   33800   -95.665526        40000 4.1233436e+11     8130.141     190.6126     79.41572   -365.69385            0    20.107868 
   33900   -95.589467        40000 4.2654796e+11     8130.141    185.75488    83.381587   -364.72593            0    20.107868 
   34000   -96.707492        40000 4.3968245e+11     8130.141    182.74865     84.42214   -363.87828            0    20.107868 
   34100   -96.138542        40000 4.4482993e+11     8130.141     179.3925    85.391259    -360.9223            0    20.107868 
   34200   -98.482805        40000 4.1425491e+11     8130.141    195.28977    76.207083   -369.97966            0    20.107868 
   34300   -98.334559        40000 4.3568337e+11     8130.141    186.97241    80.484727    -365.7917            0    20.107868 
   34400   -95.966767        40000 4.4362283e+11     8130.141    188.30713    79.853855   -364.12775            0    20.107868 
   34500   -97.625495        40000 4.4047126e+11     8130.141    187.07964    81.257844   -365.96298            0    20.107868 
   34600   -97.699851        40000 4.4484053e+11     8130.141    182.27778    84.914769   -364.89239            0    20.107868 
   34700   -98.033082        40000 4.2336035e+11     8130.141    187.16193    79.151514   -364.34652            0    20.107868 
   34800   -98.263337        40000 4.2899152e+11     8130.141    183.68169    81.518006   -363.46303            0    20.107868 
   34900   -98.361563        40000 4.3515397e+11     8130.141    187.08927    80.617021   -366.06785            0    20.107868 
   35000   -98.816703        40000 4.1819632e+11     8130.141    187.72706    79.885254   -366.42902            0    20.107868 
   35100   -97.870724        40000 4.312129e+11     8130.141    185.83423     81.42109   -365.12604            0    20.107868 
   35200   -97.468664        40000 4.4155063e+11     8130.141    184.65468    82.887712   -365.01105            0    20.107868 
   35300   -95.901914        40000 4.5329428e+11     8130.141    182.87508    85.011968   -363.78897            0    20.107868 
   35400   -96.904076        40000 4.3789517e+11     8130.141    182.44435    82.240854   -361.58928            0    20.107868 
   35500   -94.940048        40000 4.4918253e+11     8130.141    181.62378    85.987767   -362.55159            0    20.107868 
   35600   -98.060084        40000 4.3462799e+11     8130.141    188.41932     81.82036   -368.29977            0    20.107868 
   35700   -95.683607        40000 4.3825259e+11     8130.141    182.41572    82.914098   -361.01343            0    20.107868 
   35800   -98.077956        40000 4.4580522e+11     8130.141    181.29686    85.069399   -364.44421            0    20.107868 
   35900   -95.730831        40000 4.4247532e+11     8130.141    180.62202    84.413708   -360.76656            0    20.107868 
   36000   -96.482241        40000 4.3588419e+11     8130.141    187.32651    82.678454    -366.4872            0    20.107868 
   36100   -94.663235        40000 4.263084e+11     8130.141    190.83881    79.890576   -365.39262            0    20.107868 
   36200   -95.664275        40000 4.6051345e+11     8130.141     178.8186    87.518926    -362.0018            0    20.107868 
   36300   -97.085337        40000 4.3680708e+11     8130.141    186.27008    80.608595   -363.96401            0    20.107868 
   36400   -98.186612        40000 4.3588051e+11     8130.141    187.70859    79.063257   -364.95846            0    20.107868 
   36500   -97.548451        40000 4.1996517e+11     8130.141    193.02226    79.304404   -369.87512            0    20.107868 
   36600   -97.627824        40000 4.4418642e+11     8130.141    185.05692    82.751367   -365.43611            0    20.107868 
   36700   -100.43486        40000 4.3168717e+11     8130.141    188.38278    79.804677   -368.62231            0    20.107868 
   36800   -98.512163        40000 4.4215024e+11     8130.141    178.18783    84.426766   -361.12676            0    20.107868 
   36900   -99.196614        40000 4.3960709e+11     8130.141      183.443     82.24366   -364.88327            0    20.107868 
   37000   -98.208213        40000 4.3667663e+11     8130.141    184.30064    80.061435   -362.57029            0    20.107868 
   37100   -100.27679        40000 4.2592656e+11     8130.141    190.32761    77.872154   -368.47655            0    20.107868 
   37200   -100.05221        40000 4.4037331e+11     8130.141    184.35414    81.100111   -365.50647            0    20.107868 
   37300   -102.29612        40000 4.2734475e+11     8130.141    188.64399    77.193195    -368.1333            0    20.107868 
   37400   -100.66389        40000 4.2353398e+11     8130.141    193.25084    76.528735   -370.44347            0    20.107868 
   37500    -100.3038        40000 4.2181215e+11     8130.141    189.90489    76.431876   -366.64056            0    20.107868 
   37600   -100.17753        40000 4.3019718e+11     8130.141    186.01514    78.884682   -365.07735            0    20.107868 
   37700   -100.80129        40000 4.2129458e+11     8130.141    189.57246    77.632727   -368.00648            0    20.107868 
   37800   -101.13735        40000 4.2628625e+11     8130.141     189.2888    79.137374   -369.56352            0    20.107868 
   37900   -98.877533        40000 4.4229842e+11     8130.141    180.04967    84.322761   -363.24996            0    20.107868 
   38000    -97.59456        40000 4.2651141e+11     8130.141    183.81913    82.473221   -363.88692            0    20.107868 
   38100   -99.460806        40000 4.2253506e+11     8130.141    188.57524    79.607036   -367.64308            0    20.107868 
   38200   -98.829802        40000 4.3154232e+11     8130.141    185.52988    79.926501   -364.28618            0    20.107868 
   38300   -100.16653        40000 4.3144221e+11     8130.141    185.39872    80.041028   -365.60627            0    20.107868 
   38400   -100.00791        40000 4.1966861e+11     8130.141    184.36524    80.280184   -364.65333            0    20.107868 
   38500   -102.30943        40000 4.1362124e+11     8130.141    189.68848    76.684264   -368.68218            0    20.107868 
   38600   -100.88388        40000 4.2786538e+11     8130.141    185.63496    79.667325   -366.18616            0    20.107868 
   38700    -98.27329        40000 4.2117294e+11     8130.141    188.70062    77.376844   -364.35075            0    20.107868 
   38800   -98.983307        40000 4.3300468e+11     8130.141    183.66339    80.821071   -363.46776            0    20.107868 
   38900   -98.685952        40000 4.3477661e+11     8130.141    183.96173     80.29613   -362.94381            0    20.107868 
   39000   -99.844351        40000 4.3039984e+11     8130.141    184.93738     79.12814   -363.90987            0    20.107868 
   39100   -95.571999        40000 4.4477666e+11     8130.141    182.21669    83.324938   -361.11363            0    20.107868 
   39200   -98.950625        40000 4.4152162e+11     8130.141    182.97635    81.827401   -363.75437            0    20.107868 
   39300   -98.056657        40000 4.4399574e+11     8130.141    180.06653    84.326619    -362.4498            0    20.107868 
   39400   -97.825129        40000 4.3702402e+11     8130.141    185.18832    80.111938   -363.12539            0    20.107868 
   39500   -98.455896        40000 4.4269077e+11     8130.141    183.37842    81.575801   -363.41012            0    20.107868 
   39600   -97.314224        40000 4.1128972e+11     8130.141    191.15145    77.148373   -365.61405            0    20.107868 
   39700   -96.586041        40000 4.4310269e+11     8130.141     181.0665    84.307683   -361.96023            0    20.107868 
   39800   -97.359291        40000 4.5347773e+11     8130.141    179.97916    84.850764   -362.18922            0    20.107868 
   39900   -98.102304        40000 4.2524719e+11     8130.141    187.78109    79.487369   -365.37076            0    20.107868 
   40000   -94.576264        40000 4.6336172e+11     8130.141    177.55309    86.839563   -358.96892            0    20.107868 
   40100   -95.906091        40000 4.3017075e+11     8130.141     186.5622    80.394071   -362.86236            0    20.107868 
   40200   -97.779952        40000 4.4132153e+11     8130.141    182.14643    83.207378   -363.13376            0    20.107868 
   40300   -97.426473        40000 4.3715844e+11     8130.141    182.72924    82.457409   -362.61312            0    20.107868 
   40400    -97.11219        40000 4.3500819e+11     8130.141    187.81103     81.73643   -366.65965            0    20.107868 
   40500   -100.94286        40000 4.3435276e+11     8130.141    187.65084    81.103514   -369.69722            0    20.107868 
   40600   -98.470719        40000 4.3044144e+11     8130.141    184.60063    81.757593   -364.82894            0    20.107868 
   40700   -99.435063        40000 4.2767074e+11     8130.141     188.2866    81.353356   -369.07502            0    20.107868 
   40800    -97.50582        40000 4.4546674e+11     8130.141    181.50124    85.032972   -364.04004            0    20.107868 
   40900   -98.339959        40000 4.2067452e+11     8130.141    188.19622    80.264297   -366.80047            0    20.107868 
   41000   -98.055314        40000 4.4591726e+11     8130.141    183.10373    84.603091   -365.76214            0    20.107868 
   41100   -100.12476        40000 4.2199948e+11     8130.141    185.26622    80.404939   -365.79593            0    20.107868 
   41200   -99.344699        40000 4.2611483e+11     8130.141    186.45138    79.917383   -365.71346            0    20.107868 
   41300   -98.865567        40000 4.189853e+11     8130.141    189.40455    77.892855   -366.16297            0    20.107868 
   41400   -98.063493        40000 4.3186046e+11     8130.141    182.93626    83.720393   -364.72015            0    20.107868 
   41500   -98.394698        40000 4.3781886e+11     8130.141    183.67726    84.044376   -366.11634            0    20.107868 
   41600   -96.762021        40000 4.4116324e+11     8130.141    185.54735    84.282769   -366.59214            0    20.107868 
   41700   -98.825841        40000 4.4361354e+11     8130.141    185.91797    81.474598   -366.21841            0    20.107868 
   41800   -98.853551        40000 4.2980013e+11     8130.141    185.30425    80.067604   -364.22541            0    20.107868 
   41900   -96.833381        40000 4.5095443e+11     8130.141    183.03255    83.931675   -363.79761            0    20.107868 
   42000   -97.370245        40000 4.2673479e+11     8130.141    187.43206    80.116372   -364.91868            0    20.107868 
   42100     -95.1695        40000  4.37425e+11     8130.141    186.32456    82.841556   -364.33562            0    20.107868 
   42200   -96.334861        40000 4.3059341e+11     8130.141    185.25977    81.821348   -363.41598            0    20.107868 
   42300   -98.322644        40000 4.3421604e+11     8130.141    184.96158    81.288257   -364.57248            0    20.107868 
   42400   -98.828539        40000 4.3528842e+11     8130.141    189.03583    78.646045   -366.51042            0    20.107868 
   42500   -96.660375        40000 4.3456615e+11     8130.141    185.53994    82.045903   -364.24622            0    20.107868 
   42600   -99.485662        40000 4.2101901e+11     8130.141    188.37524    78.163195    -366.0241            0    20.107868 
   42700   -99.860629        40000 4.2255288e+11     8130.141    190.87247    77.422342   -368.15544            0    20.107868 
   42800   -98.311708        40000 4.5219173e+11     8130.141    180.86209    85.956488   -365.13028            0    20.107868 
   42900   -96.833772        40000 4.3129173e+11     8130.141    182.24533    79.806833   -358.88594            0    20.107868 
   43000   -96.479807        40000 4.5521538e+11     8130.141    178.87529    85.380341   -360.73544            0    20.107868 
   43100   -98.988957        40000 4.2805153e+11     8130.141    187.75338    79.597655   -366.33999            0    20.107868 
   43200   -96.951893        40000 4.2711552e+11     8130.141    186.87972     81.30851   -365.14012            0    20.107868 
   43300   -98.210611        40000 4.347375e+11     8130.141    185.34534    81.425783   -364.98173            0    20.107868 
   43400    -99.78858        40000 4.206135e+11     8130.141    193.68249    75.592696   -369.06376            0    20.107868 
   43500   -97.312381        40000 4.4003441e+11     8130.141    184.27897    82.681253   -364.27261            0    20.107868 
   43600   -95.399848        40000 4.5099621e+11     8130.141    177.46648    89.002005   -361.86833            0    20.107868 
   43700   -98.061363        40000 4.3045836e+11     8130.141    182.79259    80.412467   -361.26642            0    20.107868 
   43800   -97.444504        40000 4.3642198e+11     8130.141    186.33948    80.601129   -364.38511            0    20.107868 
   43900   -97.750254        40000 4.4061556e+11     8130.141    183.94309    81.162986   -362.85633            0    20.107868 
   44000   -97.466964        40000 4.234983e+11     8130.141    190.06821    79.727417   -367.26259            0    20.107868 
   44100    -99.52632        40000 4.291533e+11     8130.141    188.23243    77.823498   -365.58225            0    20.107868 
   44200   -99.779431        40000 4.3018349e+11     8130.141    189.70457    78.381418   -367.86542            0    20.107868 
   44300   -100.47933        40000 4.2765818e+11     8130.141    192.83468     77.52103   -370.83504            0    20.107868 
   44400   -99.389028        40000 4.2200944e+11     8130.141    190.76007      79.0771    -369.2262            0    20.107868 
   44500   -97.832073        40000 4.3418281e+11     8130.141    187.21714    79.991959   -365.04117            0    20.107868 
   44600    -95.98475        40000 4.4743149e+11     8130.141    185.88967    82.590625   -364.46505            0    20.107868 
   44700   -96.348802        40000 4.3145666e+11     8130.141    184.59384    81.320044   -362.26269            0    20.107868 
   44800   -97.356399        40000 4.4613809e+11     8130.141    185.17202     83.40359   -365.93201            0    20.107868 
   44900   -100.03445        40000 4.1788843e+11     8130.141    191.78705    75.582476   -367.40398            0    20.107868 
   45000   -97.568976        40000 4.386687e+11     8130.141    186.97174    79.908336   -364.44906            0    20.107868 
   45100   -98.486767        40000 4.3901717e+11     8130.141    187.70028    79.982834   -366.16988            0    20.107868 
   45200   -99.840905        40000 4.3638173e+11     8130.141    188.65629    78.858194   -367.35539            0    20.107868 
   45300    -100.1643        40000 4.4682428e+11     8130.141    183.86569    81.917696   -365.94769            0    20.107868 
   45400    -98.91252        40000 4.3857384e+11     8130.141    184.46771     80.86564   -364.24587            0    20.107868 
   45500   -97.443579        40000 4.5214496e+11     8130.141    184.26768    83.292575   -365.00384            0    20.107868 
   45600   -98.431141        40000 4.3406223e+11     8130.141    189.50639       78.651   -366.58853            0    20.107868 
   45700   -97.679217        40000 4.330131e+11     8130.141    190.49628    78.526456   -366.70195            0    20.107868 
   45800   -97.983393        40000 4.3001239e+11     8130.141    191.99165    77.410939   -367.38598            0    20.107868 
   45900   -99.018699        40000 4.3190584e+11     8130.141    187.93834    80.682906   -367.63994            0    20.107868 
   46000   -97.851775        40000 4.3888605e+11     8130.141    186.93261     80.55505   -365.33943            0    20.107868 
   46100   -98.487095        40000 4.3716686e+11     8130.141    186.38907     80.38985   -365.26602            0    20.107868 
   46200    -98.81557        40000 4.2721294e+11     8130.141    186.70356    80.201729   -365.72086            0    20.107868 
   46300   -99.530387        40000 4.1730113e+11     8130.141     190.6582    76.761271   -366.94985            0    20.107868 
   46400   -99.257047        40000 4.3952776e+11     8130.141    190.09557    79.189812   -368.54243            0    20.107868 
   46500   -98.367618        40000 4.4424128e+11     8130.141    189.54292     79.28029   -367.19082            0    20.107868 
   46600   -100.19276        40000 4.2166011e+11     8130.141    190.49577    78.102274   -368.79081            0    20.107868 
   46700   -99.399619        40000 4.2488947e+11     8130.141    189.63478    79.482446   -368.51685            0    20.107868 
   46800    -97.01185        40000 4.3836014e+11     8130.141    186.19087    81.222748   -364.42547            0    20.107868 
   46900   -97.842447        40000 4.3194362e+11     8130.141    188.75141     79.30143   -365.89529            0    20.107868 
   47000   -98.210769        40000 4.4370055e+11     8130.141    184.21626     82.71916   -365.14619            0    20.107868 
   47100   -97.427714        40000 4.4351638e+11     8130.141    186.48058    82.759429   -366.66773            0    20.107868 
   47200    -97.74494        40000 4.3060706e+11     8130.141    187.87778    79.611588    -365.2343            0    20.107868 
   47300   -99.509865        40000 4.2003355e+11     8130.141    189.52536    78.536326   -367.57155            0    20.107868 
   47400    -100.3375        40000 4.1829095e+11     8130.141    188.01192    78.787111   -367.13653            0    20.107868 
   47500   -98.726876        40000 4.2641013e+11     8130.141    187.46002    80.543629   -366.73053            0    20.107868 
   47600   -97.284761        40000 4.5080831e+11     8130.141    181.82466    85.110833   -364.22026            0    20.107868 
   47700   -99.380581        40000 4.2261279e+11     8130.141    190.33165    78.076783   -367.78902            0    20.107868 
   47800   -100.66134        40000 4.2370126e+11     8130.141    191.15919    77.197915   -369.01845            0    20.107868 
   47900   -98.990132        40000 4.2988213e+11     8130.141    186.05045    80.213179   -365.25376            0    20.107868 
   48000   -99.964542        40000 4.3433933e+11     8130.141    186.84063    80.224048   -367.02922            0    20.107868 
   48100   -100.51234        40000 4.3269022e+11     8130.141    187.11438    79.419748   -367.04647            0    20.107868 
   48200   -100.25916        40000 4.3877085e+11     8130.141    187.52858    79.039701   -366.82744            0    20.107868 
   48300    -98.47461        40000 4.4703941e+11     8130.141     184.0806    80.507938   -363.06314            0    20.107868 
   48400    -97.95046        40000 4.1820391e+11     8130.141    191.33596    77.868245   -367.15467            0    20.107868 
   48500   -97.216195        40000 4.321789e+11     8130.141    186.36086    82.915821   -366.49288            0    20.107868 
   48600   -99.697074        40000 4.335209e+11     8130.141    186.01063    78.651371   -364.35908            0    20.107868 
   48700   -99.912932        40000 4.1928692e+11     8130.141    190.60584    76.463354   -366.98213            0    20.107868 
   48800    -99.24067        40000 4.3334475e+11     8130.141    188.81797    79.030209   -367.08885            0    20.107868 
   48900   -97.760723        40000 4.4277888e+11     8130.141    190.35039    80.947888   -369.05901            0    20.107868 
   49000   -98.746825        40000 4.2520759e+11     8130.141    190.21672    78.271659    -367.2352            0    20.107868 
   49100   -99.472654        40000 4.2749061e+11     8130.141    190.92305    78.454382   -368.85008            0    20.107868 
   49200   -98.488675        40000 4.3307319e+11     8130.141    190.69103     79.18519   -368.36489            0    20.107868 
   49300   -99.053671        40000 4.4271495e+11     8130.141    186.97876    80.241194   -366.27362            0    20.107868 
   49400   -98.951331        40000 4.5136594e+11     8130.141    182.17643    82.438927   -363.56669            0    20.107868 
   49500   -98.876491        40000 4.396494e+11     8130.141    187.26611    80.509814   -366.65241            0    20.107868 
   49600   -97.893795        40000  4.34179e+11     8130.141    187.24572    79.920991   -365.06051            0    20.107868 
   49700   -98.818967        40000 4.3668431e+11     8130.141    182.85114    81.523243   -363.19335            0    20.107868 
   49800   -98.081358        40000 4.3880556e+11     8130.141    186.13834    82.009085   -366.22878            0    20.107868 
   49900   -100.74495        40000 4.3716984e+11     8130.141    187.48021    80.424404   -368.64956            0    20.107868 
   50000   -99.286505        40000 4.3859766e+11     8130.141    187.03392    80.931187   -367.25161            0    20.107868 
Loop time of 2001.69 on 6 procs for 50000 steps with 864 atoms

Performance: 0.000 ns/day, 91947.290 hours/ns, 24.979 timesteps/s
99.8% CPU use with 6 MPI tasks x no OpenMP threads

MPI task timing breakdown:
Section |  min time  |  avg time  |  max time  |%varavg| %total
---------------------------------------------------------------
Pair    | 875.83     | 1410.3     | 1950.1     | 927.2 | 70.46
Neigh   | 9.9001     | 14.581     | 19.29      |  81.7 |  0.73
Comm    | 27.271     | 571.69     | 1110.8     |1468.3 | 28.56
Output  | 3.0863     | 3.0872     | 3.0909     |   0.1 |  0.15
Modify  | 0.18061    | 0.18324    | 0.18908    |   0.7 |  0.01
Other   |            | 1.855      |            |       |  0.09

Nlocal:    144 ave 163 max 131 min
Histogram: 2 0 0 1 0 2 0 0 0 1
Nghost:    18786.2 ave 18988 max 18645 min
Histogram: 2 0 0 0 3 0 0 0 0 1
Neighs:    348193 ave 436755 max 220070 min
Histogram: 1 0 1 0 0 0 1 1 0 2

Total # of neighbors = 2089156
Ave neighs/atom = 2418
Neighbor list builds = 2183
Dangerous builds = 0

unfix           2

run             100000
Per MPI rank memory allocation (min/avg/max) = 11.73 | 12.37 | 13.26 Mbytes
Step PotEng Temp Press Volume v_eke v_epauli v_ecoul v_erres Lx 
   50000   -99.286505        40000 4.3859766e+11     8130.141    187.03392    80.931187   -367.25161            0    20.107868 
   50100   -101.91082    41281.537 4.3081382e+11     8130.141    191.47577    76.534337   -369.92092            0    20.107868 
   50200   -97.316188    39038.035 4.1528185e+11     8130.141    191.06675    77.336414   -365.71935            0    20.107868 
   50300   -97.842882    39295.288 4.2823029e+11     8130.141    190.57998    79.230358   -367.65322            0    20.107868 
   50400   -98.821076    39773.062 4.1530505e+11     8130.141    195.40399    74.253522   -368.47858            0    20.107868 
   50500   -95.960884    38376.162 4.2567571e+11     8130.141    183.18194    82.381782   -361.52461            0    20.107868 
   50600   -98.034721    39389.251 4.3626685e+11     8130.141    183.83507    83.075613   -364.94541            0    20.107868 
   50700   -98.167393      39453.8 4.1976163e+11     8130.141    190.55324    76.908115   -365.62875            0    20.107868 
   50800   -98.271305    39504.696 4.3283678e+11     8130.141    184.87058    79.932309   -363.07419            0    20.107868 
   50900   -99.210991    39963.619 4.3128682e+11     8130.141    186.75711    79.666564   -365.63466            0    20.107868 
   51000    -99.74092     40222.27 4.4089828e+11     8130.141    187.34216    81.107397   -368.19048            0    20.107868 
   51100   -99.331287    40022.267 4.3205749e+11     8130.141    187.73599    79.961513   -367.02879            0    20.107868 
   51200   -96.966912     38867.59 4.3240033e+11     8130.141    185.26183    83.047531   -365.27627            0    20.107868 
   51300   -100.89344    40785.101 4.3376019e+11     8130.141    187.88836    77.608558   -366.39035            0    20.107868 
   51400   -99.619172    40162.825 4.4143908e+11     8130.141    183.64708     81.15094    -364.4172            0    20.107868 
   51500   -101.42989    41047.075 4.4041722e+11     8130.141    186.40988    77.331055   -365.17082            0    20.107868 
   51600   -101.17313    40921.816 4.3586097e+11     8130.141    188.97125    77.614951   -367.75933            0    20.107868 
   51700   -98.879536    39801.632 4.2752729e+11     8130.141    188.05495    79.689043   -366.62353            0    20.107868 
   51800   -101.48034    41071.379 4.3342271e+11     8130.141    190.14742    78.253295   -369.88106            0    20.107868 
   51900   -99.683652    40194.192 4.2969997e+11     8130.141    187.93947    78.208028   -365.83115            0    20.107868 
   52000   -97.944217    39344.823 4.2112424e+11     8130.141    191.79953    77.399493   -367.14324            0    20.107868 
   52100   -99.302742    40008.271 4.4174729e+11     8130.141    185.13474    80.688204   -365.12569            0    20.107868 
   52200   -100.49067    40587.874 4.3054462e+11     8130.141    187.91934    77.543282   -365.95329            0    20.107868 
   52300   -97.952715    39348.949 4.4599721e+11     8130.141    183.36389    83.626979   -364.94358            0    20.107868 
   52400   -100.71006    40695.263 4.1840704e+11     8130.141    190.67851    76.232385   -367.62096            0    20.107868 
   52500   -98.638933    39684.402 4.2142735e+11     8130.141    189.01777    80.019588   -367.67629            0    20.107868 
   52600   -99.628839    40167.605 4.3858179e+11     8130.141    186.88181    81.210331   -367.72098            0    20.107868 
   52700   -99.165859    39941.438 4.2186195e+11     8130.141    189.83034    76.388274   -365.38448            0    20.107868 
   52800   -99.275792    39995.007 4.3506856e+11     8130.141     182.9331    82.355068   -364.56396            0    20.107868 
   52900   -98.253496      39496.4 4.3198017e+11     8130.141    186.31392    81.392375   -365.95979            0    20.107868 
   53000   -99.107152    39912.974 4.1956698e+11     8130.141    191.31194    75.123437   -365.54253            0    20.107868 
   53100   -97.704637    39227.986 4.4782663e+11     8130.141    181.24182     84.24352   -363.18998            0    20.107868 
   53200   -101.21466    40941.918 4.2377724e+11     8130.141    190.68594    74.711262   -366.61186            0    20.107868 
   53300   -100.14844    40421.553 4.4558702e+11     8130.141    182.74026    80.131293      -363.02            0    20.107868 
   53400   -99.786399    40244.629 4.5545858e+11     8130.141    180.06113    81.800965    -361.6485            0    20.107868 
   53500   -98.372127    39553.834 4.3815864e+11     8130.141    186.19621     80.60812   -365.17646            0    20.107868 
   53600   -98.549848    39640.776 4.1469594e+11     8130.141    192.44004    77.248017    -368.2379            0    20.107868 
   53700   -96.714269    38744.626 4.4316951e+11     8130.141    184.06917     84.08971   -364.87315            0    20.107868 
   53800   -99.857051    40278.722 4.2481592e+11     8130.141    191.95643    76.766751   -368.58023            0    20.107868 
   53900   -99.012069     39866.32 4.2640009e+11     8130.141    189.29451    79.426259   -367.73284            0    20.107868 
   54000   -100.51386    40599.587 4.3867803e+11     8130.141     185.4675     80.04393   -366.02529            0    20.107868 
   54100   -100.46136    40574.137 4.2863744e+11     8130.141    187.73643    78.505901   -366.70369            0    20.107868 
   54200   -101.15889     40914.67 4.4674379e+11     8130.141    183.42731    79.153496    -363.7397            0    20.107868 
   54300   -98.904817    39814.072 4.4189349e+11     8130.141    183.16828     81.69539   -363.76849            0    20.107868 
   54400    -98.84312    39783.675 4.4049422e+11     8130.141    181.40129     83.20352   -363.44793            0    20.107868 
   54500   -99.633132    40169.995 4.1912156e+11     8130.141     190.7568     76.57983   -366.96977            0    20.107868 
   54600   -96.514222    38646.664 4.2211303e+11     8130.141     185.8179    79.848894   -362.18102            0    20.107868 
   54700   -99.985508     40341.46 4.2477619e+11     8130.141     191.8053    77.498758   -369.28957            0    20.107868 
   54800   -99.455211    40082.207 4.3937695e+11     8130.141    184.60387    80.408139   -364.46722            0    20.107868 
   54900    -98.60874    39669.013 4.3581833e+11     8130.141    186.33356     79.78946   -364.73176            0    20.107868 
   55000   -101.43051    41047.105 4.3511262e+11     8130.141    187.90169    78.041113   -367.37332            0    20.107868 
   55100   -101.58364    41121.515 4.3650689e+11     8130.141    186.08555    79.006901   -366.67609            0    20.107868 
   55200    -98.12386    39432.764 4.2935426e+11     8130.141    180.98604    82.297076   -361.40697            0    20.107868 
   55300   -99.494931    40102.503 4.230476e+11     8130.141    184.92963    80.110777   -364.53534            0    20.107868 
   55400   -98.616524    39673.045 4.2857267e+11     8130.141    182.84004    83.836408   -365.29297            0    20.107868 
   55500   -100.09189    40393.851 4.2089155e+11     8130.141      189.629    79.689512    -369.4104            0    20.107868 
   55600   -96.959971     38864.61 4.4448967e+11     8130.141    181.52219     83.86531   -362.34748            0    20.107868 
   55700    -100.3147    40502.576 4.2347303e+11     8130.141    188.24782    78.724909   -367.28743            0    20.107868 
   55800   -97.218145    38989.566 4.305654e+11     8130.141    188.36917    79.831093   -365.41841            0    20.107868 
   55900   -99.234011    39974.393 4.1801289e+11     8130.141    193.57421    77.041942   -369.85016            0    20.107868 
   56000   -98.322419    39529.812 4.3009504e+11     8130.141    187.23531    80.521524   -366.07926            0    20.107868 
   56100   -99.397787    40054.972  4.38803e+11     8130.141    183.84012    81.536026   -364.77394            0    20.107868 
   56200   -96.361349    38571.841 4.3725074e+11     8130.141    185.62551    83.836848   -365.82371            0    20.107868 
   56300    -98.02453    39383.754 4.3373939e+11     8130.141     188.4759     79.93055   -366.43098            0    20.107868 
   56400   -99.587639    40147.092 4.5089072e+11     8130.141    182.30912    83.844796   -365.74155            0    20.107868 
   56500   -96.471526    38625.827 4.3352202e+11     8130.141    186.01363    81.237965   -363.72312            0    20.107868 
   56600    -97.89082    39318.788 4.2769629e+11     8130.141       185.03    81.263439   -364.18426            0    20.107868 
   56700   -97.602322     39177.47 4.2979707e+11     8130.141    188.89279    80.592481   -367.08759            0    20.107868 
   56800   -96.583674    38680.884 4.2641545e+11     8130.141    185.96054     82.08087   -364.62508            0    20.107868 
   56900   -99.473545    40091.517 4.2359921e+11     8130.141    190.94873    77.392814   -367.81509            0    20.107868 
   57000   -97.382842    39070.684 4.3171971e+11     8130.141    185.23057    82.419283    -365.0327            0    20.107868 
   57100   -99.102749    39910.462 4.3579451e+11     8130.141    184.32251    80.379193   -363.80445            0    20.107868 
   57200   -97.563242    39159.024 4.371409e+11     8130.141    183.08821    83.834903   -364.48635            0    20.107868 
   57300   -98.090652    39416.621 4.4467387e+11     8130.141    185.37864    82.539758   -366.00905            0    20.107868 
   57400   -100.12028    40407.473 4.3746661e+11     8130.141    186.62045     81.07998   -367.82072            0    20.107868 
   57500   -98.628498    39678.753 4.3529234e+11     8130.141    183.56355    82.159447    -364.3515            0    20.107868 
   57600   -99.043929    39881.726 4.3628767e+11     8130.141     188.9319    79.420523   -367.39635            0    20.107868 
   57700   -98.451593     39593.12 4.4224557e+11     8130.141     182.2305    82.731935   -363.41403            0    20.107868 
   57800   -99.684979    40195.173 4.2268251e+11     8130.141    192.29122    76.855521   -368.83172            0    20.107868 
   57900    -98.90982    39816.243 4.2916911e+11     8130.141    186.72285    79.335987   -364.96866            0    20.107868 
   58000   -100.20501    40448.871 4.3772646e+11     8130.141    187.11275    78.720719   -366.03848            0    20.107868 
   58100   -100.22658    40459.259 4.5503903e+11     8130.141    183.09822    82.731432   -366.05624            0    20.107868 
   58200   -99.754652    40229.136 4.3969421e+11     8130.141    190.75286    78.551043   -369.05856            0    20.107868 
   58300   -99.689121    40196.828 4.3313865e+11     8130.141     191.8707    77.588195   -369.14801            0    20.107868 
   58400   -99.119047    39918.516 4.3357551e+11     8130.141    188.41058    79.708729   -367.23836            0    20.107868 
   58500   -100.71808    40699.245 4.5167523e+11     8130.141    182.32766    82.342109   -365.38785            0    20.107868 
   58600   -97.989205    39366.681 4.3040531e+11     8130.141    187.29558    79.391647   -364.67644            0    20.107868 
   58700   -99.804228    40253.044 4.3575107e+11     8130.141    185.16313    79.289849    -364.2572            0    20.107868 
   58800   -97.822311    39284.965 4.1993218e+11     8130.141    190.07952    78.692641   -366.59447            0    20.107868 
   58900   -97.194873    38978.726 4.3133043e+11     8130.141    183.24062     81.63196   -362.06745            0    20.107868 
   59000   -97.977859    39361.247 4.5018531e+11     8130.141    183.59602    83.585209   -365.15909            0    20.107868 
   59100   -99.450019    40079.857 4.4005508e+11     8130.141    188.36986    80.546398   -368.36628            0    20.107868 
   59200   -99.385171    40048.299 4.380675e+11     8130.141    184.31596    79.259825   -362.96096            0    20.107868 
   59300   -101.37331    41019.294 4.2699693e+11     8130.141    189.71637    78.131833   -369.22151            0    20.107868 
   59400   -97.947519    39346.562 4.1770959e+11     8130.141    187.02722    79.289749   -364.26449            0    20.107868 
   59500   -97.503228    39129.608 4.2289128e+11     8130.141       186.62     80.86324   -364.98647            0    20.107868 
   59600   -99.818211    40260.525 4.2946397e+11     8130.141    186.82364    80.690198   -367.33205            0    20.107868 
[...]
  135400   -98.609723    39669.635 4.3146368e+11     8130.141     185.3599    82.551763   -366.52138            0    20.107868 
  135500   -98.977881    39849.301 4.345391e+11     8130.141    185.94571    79.640537   -364.56413            0    20.107868 
  135600   -96.662797    38718.912 4.3299842e+11     8130.141    182.97173    83.933492   -363.56802            0    20.107868 
  135700   -98.234687    39485.983 4.3280778e+11     8130.141    186.04136    82.045496   -366.32154            0    20.107868 
  135800     -98.0146    39378.933 4.3780669e+11     8130.141    184.73627    82.842196   -365.59307            0    20.107868 
  135900    -99.69021    40197.399 4.2011144e+11     8130.141    193.02561    77.636238   -370.35206            0    20.107868 
  136000   -98.565381     39647.63 4.4030713e+11     8130.141     184.9395    83.591351   -367.09623            0    20.107868 
  136100   -97.607836     39180.01 4.3621223e+11     8130.141    183.94155    82.317831   -363.86722            0    20.107868 
  136200   -97.027505    38897.035 4.3543657e+11     8130.141    183.16029    84.877957   -365.06576            0    20.107868 
  136300   -97.639325    39195.614 4.3577213e+11     8130.141    187.86043    80.658746    -366.1585            0    20.107868 
  136400   -96.843921    38807.266 4.4469264e+11     8130.141    182.15842    83.251432   -362.25377            0    20.107868 
  136500   -98.794762    39760.116 4.3620126e+11     8130.141    186.71373    80.466915    -365.9754            0    20.107868 
  136600   -99.868462    40284.642 4.4191674e+11     8130.141    180.99723    82.165906    -363.0316            0    20.107868 
  136700   -99.810105    40255.769 4.309064e+11     8130.141    186.98238    79.333653   -366.12613            0    20.107868 
  136800   -98.864891    39794.297 4.1943477e+11     8130.141     189.5327    78.433636   -366.83123            0    20.107868 
  136900   -98.405667     39569.97 4.3865747e+11     8130.141    186.05207    82.055988   -366.51373            0    20.107868 
  137000   -99.159545    39938.074 4.3308783e+11     8130.141    184.05735    80.383758   -363.60065            0    20.107868 
  137100   -98.160084    39450.026 4.3914511e+11     8130.141    182.72874    83.183948   -364.07278            0    20.107868 
  137200    -98.30638      39521.1 4.3858306e+11     8130.141     182.6765    82.892243   -363.87512            0    20.107868 
  137300   -96.562584    38669.581 4.2353355e+11     8130.141     187.6322    81.979091   -366.17388            0    20.107868 
  137400   -99.523334    40115.941 4.3018056e+11     8130.141    190.36282     80.69684   -370.58299            0    20.107868 
  137500   -97.246765    39003.957 4.3074912e+11     8130.141    188.21259    80.498071   -365.95743            0    20.107868 
  137600   -97.443301    39099.769 4.3195081e+11     8130.141    184.51379    83.206839   -365.16393            0    20.107868 
  137700   -96.439788    38610.015 4.2757571e+11     8130.141    185.54016    81.220649    -363.2006            0    20.107868 
  137800   -98.115769    39428.387 4.1954524e+11     8130.141    190.26853    79.665278   -368.04957            0    20.107868 
  137900   -99.547109    40127.046 4.3201254e+11     8130.141    185.17829    80.080876   -364.80628            0    20.107868 
  138000   -97.106431    38935.876 4.3117087e+11     8130.141    181.20877    86.390021   -364.70522            0    20.107868 
  138100   -98.005253    39374.487 4.2430781e+11     8130.141       186.54     79.91526   -364.46052            0    20.107868 
  138200   -98.190814    39465.373 4.3735693e+11     8130.141     182.7292    84.084899   -365.00491            0    20.107868 
  138300   -98.944347    39832.741 4.2036789e+11     8130.141    193.48408    77.722946   -370.15137            0    20.107868 
  138400   -97.132145    38948.163 4.3547614e+11     8130.141     184.4266     84.28964   -365.84839            0    20.107868 
  138500   -98.804002    39764.596 4.3147931e+11     8130.141    190.42935    78.494514   -367.72787            0    20.107868 
  138600   -97.260271    39010.729 4.3024449e+11     8130.141    182.08298     81.31749   -360.66074            0    20.107868 
  138700   -98.613904    39671.597 4.4106692e+11     8130.141    182.40605    83.798009   -364.81796            0    20.107868 
  138800   -97.342164    39050.737 4.3185016e+11     8130.141      186.283    81.082143   -364.70731            0    20.107868 
  138900   -100.37339    40530.773 4.1845171e+11     8130.141    188.90739    76.901641   -366.18242            0    20.107868 
  139000   -97.392439    39075.289 4.3626376e+11     8130.141    183.82082    83.143998   -364.35725            0    20.107868 
  139100   -99.346839    40029.611 4.115684e+11     8130.141    188.44105    77.907779   -365.69567            0    20.107868 
  139200   -96.454525    38617.381 4.1338554e+11     8130.141    185.59811    80.561853   -362.61449            0    20.107868 
  139300   -95.991731    38391.176 4.2970898e+11     8130.141    183.54944     81.78846   -361.32963            0    20.107868 
  139400   -99.300111    40006.922 4.2913946e+11     8130.141    184.96937    79.927883   -364.19736            0    20.107868 
  139500   -97.765832    39257.815 4.4478232e+11     8130.141    178.99039    84.594364   -361.35059            0    20.107868 
  139600   -99.693007    40198.663 4.2787223e+11     8130.141    183.36238    81.581198   -364.63658            0    20.107868 
  139700   -96.467493    38623.823 4.3883235e+11     8130.141    181.83725    83.036021   -361.34077            0    20.107868 
  139800   -98.550706    39640.585 4.5113232e+11     8130.141    181.38626    84.984462   -364.92142            0    20.107868 
  139900   -96.675799    38725.186 4.2503406e+11     8130.141    184.33458    83.720082   -364.73046            0    20.107868 
  140000   -98.550921    39640.209 4.3013438e+11     8130.141    186.43296    78.922415   -363.90629            0    20.107868 
  140100   -98.848339    39786.078 4.3630448e+11     8130.141    189.07175    78.715439   -366.63552            0    20.107868 
  140200   -99.060314    39889.515 4.2979866e+11     8130.141    189.94157    78.672263   -367.67415            0    20.107868 
  140300   -95.899961     38346.24 4.3144898e+11     8130.141    184.97533    82.249581   -363.12487            0    20.107868 
  140400   -98.574674    39652.479 4.2820795e+11     8130.141    185.90784    83.341713   -367.82423            0    20.107868 
  140500   -96.004838     38397.33 4.1769214e+11     8130.141    190.52712    79.947183   -366.47914            0    20.107868 
  140600   -99.329848    40021.293 4.4783242e+11     8130.141    184.66665    83.396206    -367.3927            0    20.107868 
  140700   -97.135008    38949.413 4.2340778e+11     8130.141    189.32271    80.127445   -366.58516            0    20.107868 
  140800   -96.506817     38642.67 4.2413906e+11     8130.141    188.70108    82.326224   -367.53412            0    20.107868 
  140900   -99.112086    39914.738 4.2595715e+11     8130.141    190.19431    77.375751   -366.68215            0    20.107868 
  141000    -97.70395     39227.54 4.2960826e+11     8130.141    184.13157    81.932181    -363.7677            0    20.107868 
  141100   -97.829949    39288.775 4.2787926e+11     8130.141    185.79017    81.629353   -365.24947            0    20.107868 
  141200    -96.81415    38792.871 4.4884306e+11     8130.141    185.81634    81.750983   -364.38148            0    20.107868 
  141300   -97.188853    38975.836 4.422319e+11     8130.141    185.39286    81.240561   -363.82228            0    20.107868 
  141400   -97.019992    38893.161 4.4755397e+11     8130.141    181.76371    85.865236   -364.64893            0    20.107868 
  141500   -99.300726    40006.981 4.3210309e+11     8130.141    186.83151     79.97535   -366.10758            0    20.107868 
  141600   -97.690601    39220.667 4.4320637e+11     8130.141    184.13726    82.177035    -364.0049            0    20.107868 
  141700   -98.299497    39517.797 4.1994501e+11     8130.141    191.75332    76.494267   -366.54709            0    20.107868 
  141800   -97.835824     39291.68 4.3688259e+11     8130.141    185.07453    80.726975   -363.63733            0    20.107868 
  141900   -100.46156    40573.279 4.1635016e+11     8130.141    192.73475    74.863653   -368.05996            0    20.107868 
  142000   -98.995582    39857.978 4.2541166e+11     8130.141    189.61436    79.764224   -368.37417            0    20.107868 
  142100   -96.913502     38841.39 4.243651e+11     8130.141    189.62497     78.99452     -365.533            0    20.107868 
  142200    -97.33307    39046.011 4.441398e+11     8130.141    182.92441    82.861269   -363.11875            0    20.107868 
  142300   -99.628171    40166.594 4.348861e+11     8130.141    187.49753    78.093801    -365.2195            0    20.107868 
  142400   -97.118169    38940.869 4.2268773e+11     8130.141    188.05025    79.859998   -365.02842            0    20.107868 
  142500   -97.443136    39099.924 4.2730077e+11     8130.141    185.85968    81.305985   -364.60881            0    20.107868 
  142600   -96.045193    38417.204 4.3269014e+11     8130.141    186.97904    81.044695   -364.06893            0    20.107868 
  142700   -97.203931    38983.182 4.3325484e+11     8130.141    188.18787    80.802401    -366.1942            0    20.107868 
  142800   -99.004571    39862.312 4.2928788e+11     8130.141    189.60099    78.109085   -366.71464            0    20.107868 
  142900   -96.524905    38651.158 4.4645964e+11     8130.141    184.18841    83.663628   -364.37695            0    20.107868 
  143000   -97.224568    38993.088 4.2069891e+11     8130.141    189.68623    80.655306    -367.5661            0    20.107868 
  143100   -94.697201     37759.28 4.2778092e+11     8130.141    186.90895    84.857852   -366.46401            0    20.107868 
  143200   -97.926888    39336.217 4.3428071e+11     8130.141     185.3536    83.060311    -366.3408            0    20.107868 
  143300   -96.703159     38738.87 4.2501857e+11     8130.141    187.88266    81.852391   -366.43821            0    20.107868 
  143400   -98.461965    39597.424 4.2955695e+11     8130.141    188.67928    78.536148   -365.67739            0    20.107868 
  143500   -95.024348    37918.869 4.3473463e+11     8130.141    181.80753    84.541253   -361.37313            0    20.107868 
  143600   -97.231062    38996.312 4.2657514e+11     8130.141    186.11127    79.250534   -362.59286            0    20.107868 
  143700   -96.232325    38508.716 4.3798952e+11     8130.141    183.64899    83.417403   -363.29872            0    20.107868 
  143800   -98.020084     39381.17 4.2919796e+11     8130.141    186.38225    81.523537   -365.92587            0    20.107868 
  143900   -98.440976    39587.123 4.1839431e+11     8130.141    188.15509     78.93567   -365.53174            0    20.107868 
  144000   -97.489376    39122.633 4.2443572e+11     8130.141    187.24469    80.991126   -365.72519            0    20.107868 
  144100    -97.09598    38930.354 4.3264966e+11     8130.141    185.68193    81.686865   -364.46478            0    20.107868 
  144200   -96.835122    38802.938 4.510948e+11     8130.141    181.44854    84.230671   -362.51433            0    20.107868 
  144300    -95.36471     38085.05 4.3700218e+11     8130.141    185.90434    83.886751    -365.1558            0    20.107868 
  144400   -98.808263    39766.247 4.3032156e+11     8130.141    187.85061    81.023006   -367.68188            0    20.107868 
  144500   -95.298229    38052.683 4.2371996e+11     8130.141    185.10725    83.407894   -363.81337            0    20.107868 
  144600   -98.617055    39672.944 4.361864e+11     8130.141    184.15917    81.907562   -364.68379            0    20.107868 
  144700   -95.982593    38386.297 4.4654096e+11     8130.141    178.70305    85.193182   -359.87883            0    20.107868 
  144800   -96.072705    38430.617 4.3243685e+11     8130.141    183.26482    82.807411   -362.14494            0    20.107868 
  144900    -95.76258    38279.602 4.1077886e+11     8130.141     187.3527    81.774159   -364.88944            0    20.107868 
  145000   -96.949723        38859 4.2555891e+11     8130.141    184.03832    81.512781   -362.50082            0    20.107868 
  145100   -95.042385    37927.229 4.3472944e+11     8130.141    183.21279    82.953928    -361.2091            0    20.107868 
  145200   -97.390041    39073.707 4.3080935e+11     8130.141     182.7768    85.448127   -365.61497            0    20.107868 
  145300   -96.042262    38416.064 4.2645179e+11     8130.141    184.89287    84.172976   -365.10811            0    20.107868 
  145400   -97.419706    39088.181 4.2645735e+11     8130.141    184.30757    81.524201   -363.25148            0    20.107868 
  145500   -98.754081    39739.904 4.3027788e+11     8130.141    187.38367    80.309216   -366.44696            0    20.107868 
  145600   -97.161505    38962.419 4.2548338e+11     8130.141    183.18864    82.416323   -362.76647            0    20.107868 
  145700   -99.357779    40034.966 4.220297e+11     8130.141    188.11062    79.162102    -366.6305            0    20.107868 
  145800    -95.39414    38099.644 4.3491934e+11     8130.141    179.76119    84.924704   -360.08004            0    20.107868 
  145900   -97.295114    39027.649 4.2670444e+11     8130.141    185.32897    80.525477   -363.14956            0    20.107868 
  146000   -97.552432    39153.014 4.1796556e+11     8130.141    189.47923    78.663578   -365.69524            0    20.107868 
  146100   -101.52912     41095.24 4.329728e+11     8130.141    190.17699    76.031307   -367.73742            0    20.107868 
  146200   -98.382207    39558.666 4.2511855e+11     8130.141     183.0862    81.325431   -362.79384            0    20.107868 
  146300   -100.21478    40453.036 4.330833e+11     8130.141    182.92623    81.509846   -364.65085            0    20.107868 
  146400    -102.0186    41333.776 4.4633156e+11     8130.141    183.65543    80.281357   -365.95539            0    20.107868 
  146500   -98.609127    39669.603 4.3265629e+11     8130.141    183.98663    81.506372   -364.10213            0    20.107868 
  146600   -98.157471    39448.881 4.2075105e+11     8130.141    186.53044    79.183753   -363.87167            0    20.107868 
  146700   -97.175239    38969.517 4.3929086e+11     8130.141     183.8409    83.103897   -364.12003            0    20.107868 
  146800   -97.833037     39290.14 4.4166461e+11     8130.141    184.13756    83.396991   -365.36759            0    20.107868 
  146900   -99.286471    40000.328 4.3193861e+11     8130.141     189.1709    79.989751   -368.44712            0    20.107868 
  147000   -100.96804    40821.695 4.278365e+11     8130.141    192.49137    75.661371   -369.12077            0    20.107868 
  147100   -98.439832    39586.741 4.1455288e+11     8130.141    188.56868    79.408105   -366.41662            0    20.107868 
  147200   -98.461295    39597.567 4.2297919e+11     8130.141    187.53812    80.312045   -366.31146            0    20.107868 
  147300   -98.092089    39417.219 4.270252e+11     8130.141    186.04884    80.052225   -364.19316            0    20.107868 
  147400   -99.302053    40008.515 4.3965875e+11     8130.141    182.81224    81.544612   -363.65891            0    20.107868 
  147500   -98.260728    39499.219 4.4207939e+11     8130.141      186.373    80.739405   -365.37313            0    20.107868 
  147600   -98.312374    39524.862 4.3424235e+11     8130.141    188.21224    80.912803   -367.43742            0    20.107868 
  147700   -98.605175    39667.462 4.258051e+11     8130.141    189.80089    79.818951   -368.22502            0    20.107868 
  147800   -98.499288    39615.665 4.3556304e+11     8130.141     188.0251    80.706257   -367.23065            0    20.107868 
  147900    -97.54201    39148.743 4.2655978e+11     8130.141    190.16132    79.641968    -367.3453            0    20.107868 
  148000   -97.944061    39344.592 4.3843656e+11     8130.141    188.24249    79.498402   -365.68496            0    20.107868 
  148100   -98.192009    39466.126 4.5187851e+11     8130.141    181.69849    84.009881   -363.90038            0    20.107868 
  148200   -97.996698    39370.366 4.4495081e+11     8130.141    183.75069    82.147748   -363.89514            0    20.107868 
  148300   -100.37507    40531.562 4.3177577e+11     8130.141    191.58431     76.71552    -368.6749            0    20.107868 
  148400   -95.379789     38092.38 4.4601984e+11     8130.141    182.67851    85.016786   -363.07508            0    20.107868 
  148500   -97.968129     39356.29 4.3966513e+11     8130.141    188.05915    80.587289   -366.61457            0    20.107868 
  148600   -100.47217    40578.695 4.2168632e+11     8130.141    192.84033    76.364515   -369.67701            0    20.107868 
  148700   -96.942716    38855.214 4.2513993e+11     8130.141    187.79741    82.415418   -367.15555            0    20.107868 
  148800   -100.28576    40488.462 4.1981809e+11     8130.141    191.41539    77.075229   -368.77639            0    20.107868 
  148900   -98.391119    39562.839 4.3291348e+11     8130.141    187.72015    80.627898   -366.73917            0    20.107868 
  149000   -99.437027     40073.73 4.3158049e+11     8130.141    189.14179    78.640028   -367.21884            0    20.107868 
  149100    -99.54365    40125.739 4.3002869e+11     8130.141    185.84999    80.688295   -366.08194            0    20.107868 
  149200   -98.435524    39583.971 4.3060621e+11     8130.141    185.75451    83.277907   -367.46794            0    20.107868 
  149300   -96.289566    38536.987 4.2130597e+11     8130.141    186.57968    80.863448   -363.73269            0    20.107868 
  149400   -98.081325    39411.278 4.3152446e+11     8130.141    184.89709    81.533962   -364.51238            0    20.107868 
  149500   -97.610072    39181.652 4.0433735e+11     8130.141    191.10369    78.681665   -367.39543            0    20.107868 
  149600   -98.821828     39773.42 4.2389043e+11     8130.141    187.06253    78.850345    -364.7347            0    20.107868 
  149700    -98.02244    39383.026 4.3579243e+11     8130.141    182.07303    84.497877   -364.59335            0    20.107868 
  149800   -98.387707    39561.153 4.2786793e+11     8130.141    185.86643    79.718853   -363.97299            0    20.107868 
  149900    -100.4619    40574.196 4.1576267e+11     8130.141    192.80055    76.403389   -369.66585            0    20.107868 
  150000   -96.784973    38778.235 4.3468419e+11     8130.141    183.91845    81.338509   -362.04193            0    20.107868 
Loop time of 4009.75 on 6 procs for 100000 steps with 864 atoms

Performance: 0.000 ns/day, 92093.560 hours/ns, 24.939 timesteps/s
99.7% CPU use with 6 MPI tasks x no OpenMP threads

MPI task timing breakdown:
Section |  min time  |  avg time  |  max time  |%varavg| %total
---------------------------------------------------------------
Pair    | 1740.8     | 2814.1     | 3880.9     |1303.8 | 70.18
Neigh   | 19.39      | 28.703     | 37.827     | 114.3 |  0.72
Comm    | 56.155     | 1131.8     | 2214.3     |2072.6 | 28.23
Output  | 31.045     | 31.047     | 31.053     |   0.0 |  0.77
Modify  | 0.32989    | 0.33626    | 0.34065    |   0.7 |  0.01
Other   |            | 3.709      |            |       |  0.09

Nlocal:    144 ave 153 max 130 min
Histogram: 1 0 0 0 0 1 2 1 0 1
Nghost:    18686 ave 18870 max 18491 min
Histogram: 1 0 2 0 0 0 0 1 1 1
Neighs:    348193 ave 437249 max 214072 min
Histogram: 1 0 0 1 0 1 0 1 0 2

Total # of neighbors = 2089159
Ave neighs/atom = 2418.01
Neighbor list builds = 4287
Dangerous builds = 0
write_data      h_03_40K_826N_diff_mass.data

Please see the log.cite file for references relevant to this simulation

Total wall time: 1:40:11
