ITEM: TIMESTEP
20000
ITEM: NUMBER OF ATOMS
864
ITEM: BOX BOUNDS pp pp pp
0.0000000000000000e+00 2.0147801999999999e+01
0.0000000000000000e+00 2.0147801999999999e+01
0.0000000000000000e+00 2.0147801999999999e+01
ITEM: ATOMS id type q c_1a[1] c_1a[2] x y z vx vy vz c_1a[3] c_peatom c_keatom 
5 1 1 0 0 7.87317 2.27061 1.22755 -0.00858061 0.00554459 -0.0191936 0 -0.486293 0.000254135 
7 2 0 1 1.59936 8.07038 2.93339 1.20764 -0.0266463 0.0246015 0.00856157 0.00309876 0.0231245 3.7217e-06 
8 2 0 -1 1.59948 8.07031 2.93331 1.20758 -0.0283893 0.0224676 0.00729384 0.00507662 0.0230872 3.68841e-06 
33 1 1 0 0 3.5818 7.52376 1.83009 -0.00557056 -0.0112596 -0.0241919 0 -0.511046 0.000399433 
34 1 1 0 0 2.33793 7.17647 1.89658 -0.00460823 0.00674005 -0.0817827 0 -0.509716 0.00363121 
35 2 0 1 1.5282 2.97984 7.34383 1.88023 -0.0107657 0.000173611 -0.0655122 0.00493681 0.0582896 1.18018e-05 
36 2 0 -1 1.52826 2.97999 7.34394 1.88021 -0.00878657 0.00109437 -0.0648912 -0.0024392 0.0582771 1.14489e-05 
768 2 0 -1 1.59268 3.45415 1.86114 1.01703 -0.0324159 -0.00245708 -0.0275245 -0.000960144 0.0325637 4.83989e-06 
767 2 0 1 1.59292 3.45424 1.86113 1.01691 -0.0315022 -0.00161681 -0.0291421 0.00675128 0.0325112 5.00875e-06 
90 1 1 0 0 1.74235 4.16312 0.290989 -0.00221548 -0.0364028 -0.0161558 0 -0.481278 0.000855291 
483 2 0 1 1.60935 3.93275 1.88155 4.58115 -0.00593677 -0.00386148 0.0408313 0.00339152 0.0274511 4.60221e-06 
186 1 1 0 0 5.75362 0.442875 1.8704 0.00593212 0.0476262 0.0908172 0 -0.499814 0.00567182 
557 1 1 0 0 0.978628 0.195604 4.07806 -0.0241641 0.0218151 0.0734226 0 -0.497944 0.00346758 
482 1 1 0 0 3.30842 1.56652 4.66977 -0.029714 0.0388093 0.00710485 0 -0.488427 0.00131139 
189 1 1 0 0 4.20652 5.25853 2.24432 -0.0591969 0.0134422 0.00185673 0 -0.494072 0.00198272 
213 1 1 0 0 7.48475 3.7502 3.95859 0.0386467 -0.0174482 -0.0327083 0 -0.506664 0.00154162 
191 2 0 1 1.56516 4.82531 4.88803 2.30014 -0.0540266 0.0343907 0.0104656 0.00951168 0.0500075 1.14096e-05 
192 2 0 -1 1.56508 4.82507 4.88804 2.30014 -0.051592 0.032943 0.0102901 0.00713874 0.0500389 1.03753e-05 
233 1 1 0 0 6.3223 7.77497 4.24816 0.0818874 0.0223562 -0.0100536 0 -0.512506 0.00392759 
234 1 1 0 0 6.03825 7.0311 3.18502 0.0305088 0.109579 -0.0699843 0 -0.49223 0.00958789 
235 2 0 1 1.56577 6.19558 7.46761 3.75274 0.0656202 0.055996 -0.057114 0.00696364 0.0443941 2.86373e-05 
236 2 0 -1 1.56599 6.19548 7.46751 3.75258 0.0663277 0.0575971 -0.0566704 0.00651694 0.0443385 2.92246e-05 
216 2 0 -1 1.6024 7.50505 4.20419 4.39826 0.0031433 0.00714823 -0.0487007 -0.00616623 0.0362064 6.56275e-06 
92 2 0 -1 1.59805 1.33933 4.71218 0.130997 0.0163491 -0.035682 -0.0280729 -0.010707 0.0176374 6.43827e-06 
522 1 1 0 0 9.84903 2.45806 4.75841 -0.0507598 0.0128812 -0.0485539 0 -0.493499 0.0027415 
661 1 1 0 0 9.98904 8.00981 3.82726 0.0186984 -0.169522 0.0572794 0 -0.493975 0.0173996 
215 2 0 1 1.60242 7.50516 4.20423 4.39838 0.00325913 0.00836603 -0.0473529 -0.0043232 0.0361995 6.23124e-06 
566 1 1 0 0 1.48329 4.90951 4.27731 -0.0858436 -0.00358779 -0.0760047 0 -0.477999 0.0070735 
401 1 1 0 0 8.63685 6.42543 1.73941 0.00675053 0.0117443 -0.0446549 0 -0.480959 0.00117055 
481 1 1 0 0 4.52797 2.15502 4.4873 0.0119696 -0.0187579 0.0888736 0 -0.499649 0.00451203 
484 2 0 -1 1.6096 3.93258 1.88144 4.58123 -0.00720273 -0.00477963 0.0416888 0.000892401 0.0273886 4.83497e-06 
558 1 1 0 0 0.44916 1.4014 4.10685 -0.0440315 -0.00373265 -0.0088305 0 -0.497047 0.0010916 
622 1 1 0 0 4.95877 9.79278 0.304549 0.0113118 -0.0496973 0.0109985 0 -0.484674 0.00146147 
565 1 1 0 0 0.817023 4.4351 3.13076 -0.0308867 -0.067987 -0.0861074 0 -0.46873 0.00698319 
560 2 0 -1 1.55655 0.732374 0.795448 4.13218 -0.0163944 -0.00670064 0.0217856 -0.00253636 0.04067 2.11478e-06 
765 1 1 0 0 3.11071 1.52817 1.58602 -0.0247491 -0.000402325 -0.0378138 0 -0.480167 0.00109798 
18 1 1 0 0 2.15596 8.38943 4.17175 -0.033462 0.048794 -0.0369034 0 -0.503935 0.00261381 
91 2 0 1 1.59785 1.33951 4.71207 0.130935 0.0160727 -0.0349052 -0.0272649 -0.0125353 0.0176898 6.23393e-06 
567 2 0 1 1.65323 1.13343 4.66541 3.73336 -0.0340085 -0.022194 -0.0641674 -0.00468089 0.00123939 1.54201e-05 
6 1 1 0 0 8.29745 3.56715 1.20552 -0.0578526 0.0250638 0.0434475 0 -0.492057 0.00315156 
404 2 0 -1 1.63339 8.29397 6.47519 1.09973 -0.00534058 0.0157524 -0.029907 -0.0210791 0.0183364 4.0112e-06 
568 2 0 -1 1.65328 1.13335 4.66538 3.73331 -0.0336925 -0.0227463 -0.0645981 -0.00846505 0.00122846 1.56766e-05 
559 2 0 1 1.55684 0.732489 0.795168 4.13212 -0.0152211 -0.00828941 0.022581 -0.00840772 0.0405936 2.30197e-06 
402 1 1 0 0 8.01144 6.57844 0.523216 -0.0104685 0.0174469 -0.014645 0 -0.49518 0.00033783 
190 1 1 0 0 5.34477 4.58386 2.39553 -0.0354379 0.0570048 0.0288858 0 -0.521377 0.00287041 
403 2 0 1 1.63343 8.29401 6.4752 1.09991 -0.00510901 0.0155862 -0.0288013 -0.0273209 0.0183242 4.42194e-06 
766 1 1 0 0 3.73246 2.11671 0.542439 -0.0238036 0.0128329 -0.0281298 0 -0.510346 0.000818466 
322 1 1 0 0 5.49759 9.86756 3.20477 -0.0082627 -0.0887817 -0.0352746 0 -0.493362 0.00494267 
20 2 0 -1 1.57687 1.95803 8.20657 4.81344 -0.0384341 -0.0145001 -0.0548968 -0.00405827 0.0510992 1.25681e-05 
19 2 0 1 1.57657 1.95809 8.20654 4.81345 -0.036636 -0.0134769 -0.0595816 -0.00570966 0.0511847 1.35941e-05 
214 1 1 0 0 7.51905 4.74413 4.89033 -0.0236488 0.0323386 -0.0777944 0 -0.4956 0.00411605 
542 1 1 0 0 1.4674 6.27826 7.63371 -0.0518925 -0.0386283 -0.109542 0 -0.485205 0.00870001 
687 2 0 1 1.59993 5.01844 8.92021 6.54603 -0.0401059 0.0400235 -0.00910989 0.0015487 0.0258277 8.78628e-06 
686 1 1 0 0 5.31948 9.04287 7.08053 -0.0411085 0.0430642 -0.0219168 0 -0.502133 0.00216353 
685 1 1 0 0 4.6483 8.81105 5.92865 -0.0516844 0.0475353 -0.0178379 0 -0.479723 0.00282165 
37 1 1 0 0 7.15891 6.78388 6.77159 -0.0279252 0.0203337 0.00773576 0 -0.487479 0.000673615 
38 1 1 0 0 8.27031 6.11964 7.2296 -0.0276484 -0.0137756 -0.045646 0 -0.484891 0.00163296 
39 2 0 1 1.622 7.70406 6.44952 6.98042 -0.0242348 0.0204591 -0.0101015 -0.000638187 0.0175576 2.95505e-06 
40 2 0 -1 1.62243 7.70417 6.44944 6.98041 -0.0222208 0.0186561 -0.00892344 -0.00077675 0.0174524 2.45817e-06 
523 2 0 1 1.62924 9.93396 1.8155 5.1071 0.00895197 0.0303114 -0.00148711 0.00836895 0.0304736 2.80951e-06 
805 1 1 0 0 3.41421 8.66802 9.33982 0.0530877 0.0359303 0.0967889 0 -0.512482 0.0072448 
524 2 0 -1 1.62881 9.93388 1.81564 5.10698 0.00932323 0.030075 -0.000436607 0.00123171 0.0305715 2.64712e-06 
218 1 1 0 0 6.44436 3.90802 10.0325 0.0360404 -0.0928744 -0.00807336 0 -0.503842 0.00537001 
541 1 1 0 0 0.123353 6.60688 7.60694 -0.031301 0.0508447 -0.005601 0 -0.494701 0.0019332 
521 1 1 0 0 10.0209 1.23249 5.41894 0.0493692 0.0609806 0.0419788 0 -0.504939 0.00425643 
201 1 1 0 0 3.97212 4.40988 6.15851 0.0117591 0.00845105 0.044263 0 -0.475733 0.0011659 
202 1 1 0 0 4.26996 5.56598 6.902 0.0194118 0.020481 0.0119187 0 -0.478478 0.000504408 
203 2 0 1 1.6624 4.10859 5.01427 6.53728 0.0228105 0.00215015 0.0233829 0.00367922 0.00446976 2.88469e-06 
204 2 0 -1 1.6625 4.10845 5.014 6.5371 0.0246141 0.00489309 0.0251862 -0.000943111 0.00444812 3.37253e-06 
543 2 0 1 1.61736 0.776355 6.43415 7.59493 -0.0115389 0.010519 -0.0479538 -0.00264169 0.0218828 6.79565e-06 
789 1 1 0 0 7.61796 1.01566 9.75898 -0.0420563 -4.07542e-05 -0.0150089 0 -0.498307 0.00107188 
728 2 0 -1 1.62117 9.65233 3.43762 8.57315 -0.0395689 0.0152133 -0.0262934 0.00356061 0.041824 6.66073e-06 
217 1 1 0 0 6.08348 4.17298 8.77931 0.00237954 -0.122747 -0.00177907 0 -0.507329 0.00810399 
154 1 1 0 0 6.79027 8.94361 10.0184 -0.0251812 -0.0431011 0.0144991 0 -0.497784 0.00145248 
17 1 1 0 0 1.69878 8.05062 5.38268 -0.0503999 -0.075195 -0.086978 0 -0.517117 0.00847161 
409 1 1 0 0 0.475588 2.05672 7.53798 -0.0952873 0.0710132 0.0830217 0 -0.479019 0.0112967 
410 1 1 0 0 1.04444 3.17651 7.0298 -0.0417143 -0.0146241 -0.0410723 0 -0.50086 0.00195716 
411 2 0 1 1.59435 0.811487 2.65692 7.26178 -0.0618992 0.0235996 0.00533223 0.00420078 0.027051 1.18126e-05 
412 2 0 -1 1.59417 0.811308 2.65669 7.26196 -0.0621795 0.0242392 0.00513798 0.00531958 0.0270889 1.20028e-05 
465 1 1 0 0 3.41241 1.32467 8.31157 0.0341605 -0.0383045 -0.0275504 0 -0.506671 0.00182402 
466 1 1 0 0 4.45773 1.3937 9.13033 0.0362798 0.0276423 -0.016013 0 -0.518105 0.00125612 
467 2 0 1 1.57501 3.97061 1.35227 8.73384 0.0234681 -0.00683979 -0.0288614 0.0033778 0.0515923 3.83718e-06 
468 2 0 -1 1.57484 3.97072 1.35229 8.73391 0.0242782 -0.00804978 -0.0280222 0.00751388 0.0516283 3.95117e-06 
808 2 0 -1 1.6099 2.75352 8.78293 9.355 0.0315619 0.0272595 0.0488761 0.00377023 0.0458392 1.10357e-05 
807 2 0 1 1.61021 2.75412 8.78283 9.35494 0.0329615 0.0270679 0.0490063 -0.00439326 0.0457608 1.12929e-05 
725 1 1 0 0 9.6272 3.11901 8.03157 -0.0701698 -0.0198019 -0.00502236 0 -0.520831 0.00287114 
220 2 0 -1 1.5814 6.24458 4.05093 9.42385 0.0187538 -0.102134 -0.0131139 -0.00572028 0.0429551 2.92765e-05 
688 2 0 -1 1.60003 5.01864 8.92019 6.54619 -0.0402231 0.0395913 -0.00942769 0.00313245 0.0258001 8.75018e-06 
727 2 0 1 1.621 9.65237 3.43774 8.57333 -0.039942 0.0142636 -0.0275873 -0.00164128 0.041867 6.8311e-06 
219 2 0 1 1.58169 6.24462 4.05095 9.42377 0.017339 -0.101278 -0.0145538 -0.0116426 0.042874 2.89878e-05 
581 1 1 0 0 6.22023 0.981791 6.91315 -8.26398e-06 0.0427533 0.00630982 0 -0.502189 0.00100396 
582 1 1 0 0 7.24767 1.72419 6.39115 0.0456431 -0.0268829 -0.000961721 0 -0.50967 0.00150886 
583 2 0 1 1.61462 6.76845 1.3474 6.63863 0.0228395 0.0104878 -0.00294026 -0.0077738 0.0373025 1.82812e-06 
584 2 0 -1 1.6147 6.76846 1.34737 6.63863 0.021057 0.00981059 -0.00181621 -0.00778391 0.0372762 1.56888e-06 
726 1 1 0 0 9.74225 3.82192 9.20154 -0.0325598 0.0592744 -0.0526835 0 -0.496042 0.00395056 
806 1 1 0 0 2.08429 8.90419 9.36486 0.045922 0.0325603 0.0375592 0 -0.511006 0.00246183 
544 2 0 -1 1.61726 0.776176 6.43413 7.59493 -0.00939996 0.0101052 -0.0473119 -0.00389569 0.0219137 6.50681e-06 
477 1 1 0 0 8.41568 9.82922 5.84212 0.0493995 0.00557318 0.0033321 0 -0.516083 0.00133446 
174 1 1 0 0 2.52679 5.7475 10.0537 0.051906 -0.026904 0.00430003 0 -0.502925 0.00184732 
176 2 0 -1 1.60841 3.07605 5.38552 10.0114 0.0387422 -0.0161935 -0.0217425 2.30864e-05 0.0342969 5.96194e-06 
173 1 1 0 0 3.6728 5.04386 9.94102 0.0505896 -0.0252314 -0.0418893 0 -0.49952 0.00266123 
175 2 0 1 1.60808 3.07624 5.38542 10.0114 0.0371018 -0.016183 -0.0223237 0.0030287 0.0343858 5.71593e-06 
256 2 0 -1 1.61808 1.74722 0.747526 14.3849 -0.0847586 0.0315499 0.0590236 -0.00245764 0.0139304 3.11112e-05 
365 1 1 0 0 5.83941 3.30299 14.8214 -0.00156878 0.0113773 -0.0277759 0 -0.49769 0.000485627 
637 1 1 0 0 8.57308 3.25984 12.8784 0.0432199 -0.0255399 -0.0284538 0 -0.508805 0.00178997 
639 2 0 1 1.62519 8.40191 2.80931 12.4765 0.011619 -0.0159632 -0.0215044 0.00605899 0.0278299 2.34591e-06 
638 1 1 0 0 8.16421 2.26141 12.0183 0.00735149 -0.0283669 -0.0168754 0 -0.483431 0.000614693 
700 2 0 -1 1.60005 1.46631 1.81676 11.0008 0.0293839 0.0290088 0.0170574 -0.0144529 0.0373801 5.7396e-06 
803 2 0 1 1.64521 6.30099 9.46558 13.9459 -0.0427188 0.0222399 0.0205037 -0.00660991 0.0135205 7.39316e-06 
255 2 0 1 1.61824 1.74741 0.747789 14.3849 -0.0850976 0.0307263 0.0584624 -0.00240257 0.0138842 3.09516e-05 
156 2 0 -1 1.66237 6.50945 8.36866 10.2445 -0.013674 -0.0401039 0.0185161 0.00578274 0.0193949 5.7681e-06 
155 2 0 1 1.6624 6.50939 8.36827 10.2446 -0.0128347 -0.0382654 0.0181554 0.00442871 0.0193898 5.26168e-06 
254 1 1 0 0 1.42569 0.234225 14.1064 -0.109889 0.041315 0.0513364 0 -0.486042 0.00882555 
571 2 0 1 1.54301 8.9001 5.95006 10.6649 0.0414624 0.000783802 -0.0142704 -0.00132941 0.0554036 5.13212e-06 
816 2 0 -1 1.59103 10.0205 8.83892 12.2658 0.000101745 -0.0134688 -0.0101619 -0.00117081 0.0359858 7.6183e-07 
245 1 1 0 0 3.00394 7.84483 12.4786 0.0405453 0.00755564 0.00289586 0 -0.527441 0.000918891 
246 1 1 0 0 3.64137 8.5444 13.4747 0.00680387 -0.00866067 0.0360978 0 -0.494786 0.000765662 
247 2 0 1 1.6141 3.28948 8.15388 12.9387 -0.000712358 0.00507467 0.0219991 -0.0101836 0.0464893 1.56786e-06 
248 2 0 -1 1.61407 3.28931 8.1538 12.9386 0.000697047 0.00527107 0.0228319 -0.00418278 0.0465015 1.50037e-06 
570 1 1 0 0 9.24674 6.09335 11.23 0.043874 -0.0015202 0.0169938 0 -0.507779 0.00119123 
697 1 1 0 0 1.51743 2.33457 10.5988 0.049132 0.0380589 0.000779471 0 -0.507263 0.00207659 
41 1 1 0 0 9.241 9.8579 14.9512 0.037155 -0.0141567 0.000965589 0 -0.498027 0.000850321 
785 1 1 0 0 7.61485 6.31247 14.2186 0.0496905 0.105179 -0.0374112 0 -0.475638 0.00802635 
273 1 1 0 0 4.65837 1.45989 12.8935 0.000619599 -0.0163237 -0.0211567 0 -0.50011 0.000384058 
274 1 1 0 0 4.97603 2.64116 12.3747 0.0172 -0.0274669 -0.014474 0 -0.494611 0.000677193 
275 2 0 1 1.58731 4.82642 2.04073 12.6419 -0.00232892 -0.00911716 -0.0159359 -0.00386422 0.0332167 9.43109e-07 
276 2 0 -1 1.58712 4.82648 2.04096 12.6419 -0.0018085 -0.00564802 -0.0178442 -0.0057486 0.033267 1.0089e-06 
640 2 0 -1 1.62532 8.40191 2.80927 12.4764 0.0116745 -0.0175008 -0.0220008 0.00436338 0.0277975 2.50881e-06 
699 2 0 1 1.59988 1.46629 1.81741 11.0004 0.0290229 0.0270507 0.0189792 -0.00854729 0.0374225 5.30371e-06 
787 2 0 1 1.62058 8.35451 6.31627 14.33 0.038311 0.0587786 -0.112343 -0.00260179 0.0198957 4.67923e-05 
572 2 0 -1 1.54278 8.89988 5.94985 10.6645 0.0409778 0.00079117 -0.0134995 -0.00204909 0.0554729 4.97341e-06 
813 1 1 0 0 9.48988 8.45377 12.4588 0.00832639 0.0185031 0.0204783 0 -0.495891 0.000446733 
790 1 1 0 0 6.87956 0.369556 10.6543 -0.0164611 -0.045382 -0.0372568 0 -0.500147 0.00199892 
792 2 0 -1 1.56691 7.263 0.693043 10.2159 -0.0094712 -0.00491414 -0.0356232 0.00294471 0.037266 3.70465e-06 
815 2 0 1 1.59122 10.0205 8.83899 12.2658 0.000567315 -0.0137084 -0.011369 -0.00762605 0.0359376 9.62885e-07 
253 1 1 0 0 2.06785 1.32276 14.6411 -0.0656134 0.00278117 0.0579978 0 -0.478243 0.00412658 
802 1 1 0 0 6.08082 9.65993 13.2694 -0.0585124 0.0674252 0.0369532 0 -0.476963 0.00501826 
801 1 1 0 0 6.4965 9.26031 14.5352 -0.0409755 0.000796888 0.00262234 0 -0.49263 0.000906583 
421 1 1 0 0 2.12713 3.78542 13.0497 -0.00324652 0.0156945 -0.0380495 0 -0.497212 0.000916324 
422 1 1 0 0 2.42443 4.60663 14.1132 0.0210209 0.0265141 -0.0322499 0 -0.512091 0.00117452 
423 2 0 1 1.62434 2.27761 4.22402 13.6033 0.0119438 0.0171746 -0.0133072 0.00534135 0.0354962 1.69612e-06 
424 2 0 -1 1.62485 2.2776 4.22383 13.6032 0.0122074 0.0170576 -0.0146483 0.00596758 0.0353695 1.81654e-06 
513 1 1 0 0 5.04409 5.72803 12.5252 -0.00920934 -0.0294133 -0.00397664 0 -0.501956 0.00051915 
514 1 1 0 0 6.34586 5.43433 12.4075 0.00889581 0.033286 -0.0157259 0 -0.499439 0.000771062 
515 2 0 1 1.57422 5.72027 5.56688 12.4625 -0.0226258 -0.000733903 -0.0146827 0.00188383 0.0381491 1.94839e-06 
516 2 0 -1 1.57448 5.72026 5.567 12.4625 -0.0221513 -0.000692775 -0.0144587 0.00959088 0.0380785 2.05102e-06 
698 1 1 0 0 1.44717 1.27232 11.4296 0.0167875 0.057326 0.0175793 0 -0.498377 0.00208416 
153 1 1 0 0 6.31081 7.71403 10.525 -0.0237947 -0.029043 0.0487815 0 -0.484859 0.00203696 
804 2 0 -1 1.64483 6.30084 9.46565 13.9456 -0.0436955 0.0230533 0.0180115 -0.00744861 0.0136057 7.48408e-06 
569 1 1 0 0 8.56848 5.83859 10.1425 0.0691641 0.0373618 -0.00743818 0 -0.514338 0.00335159 
791 2 0 1 1.567 7.26291 0.693026 10.216 -0.00848093 -0.00452865 -0.0354314 -0.000492366 0.0372461 3.59435e-06 
786 1 1 0 0 8.9863 6.31274 14.4343 0.0663556 0.00467126 -0.134456 0 -0.500272 0.0120967 
788 2 0 -1 1.6209 8.35481 6.31619 14.3299 0.0364761 0.0583369 -0.112449 0.00267437 0.0198208 4.63528e-05 
646 1 1 0 0 6.39868 7.74687 17.6623 0.00905648 -0.0234757 -0.0122056 0 -0.488418 0.000420422 
817 1 1 0 0 8.79686 4.93729 17.3257 0.1461 -0.0022227 0.0905864 0 -0.490579 0.015888 
350 1 1 0 0 0.875113 4.42609 17.3383 -0.0117033 0.0531374 0.0715724 0 -0.494761 0.00434512 
351 2 0 1 1.60144 0.379468 4.62144 16.9056 -0.0110998 0.0022627 0.0357502 -0.00249871 0.0337391 3.76256e-06 
784 2 0 -1 1.59099 2.52453 9.36965 15.9228 -0.0186123 -0.0150552 0.0287225 -0.00324615 0.0418158 3.7489e-06 
84 2 0 -1 1.57835 4.21546 6.0979 16.0078 0.0485107 0.0371718 0.0382383 -0.00112328 0.0405139 1.38605e-05 
820 2 0 -1 1.58702 8.41163 4.68169 17.7969 0.0675965 0.00646197 0.0344766 0.00842656 0.0239214 1.56064e-05 
819 2 0 1 1.58645 8.4114 4.68166 17.7971 0.0690068 0.00737637 0.0331684 0.000603754 0.024069 1.57767e-05 
818 1 1 0 0 7.9988 4.44044 18.274 0.0147249 0.0245204 0.0116825 0 -0.48281 0.000513124 
837 1 1 0 0 0.275374 2.12222 18.9266 -0.0192774 0.0249214 0.113693 0 -0.488931 0.00748208 
763 2 0 1 1.56498 6.43839 2.06714 18.7552 0.0246953 0.00352192 -0.0371598 -0.00793129 0.0406082 5.46697e-06 
370 1 1 0 0 9.24278 1.02499 16.6271 0.074696 -0.0527556 0.0761559 0 -0.494142 0.00761302 
369 1 1 0 0 8.10362 1.13465 15.9448 0.108575 -0.031471 0.0338567 0 -0.511004 0.00748556 
645 1 1 0 0 7.72564 7.7698 17.4551 0.0324829 0.00745003 0.0590309 0 -0.487293 0.00247021 
722 1 1 0 0 4.37719 0.360176 15.7693 0.0146078 0.0315545 0.00180096 0 -0.498694 0.000651686 
352 2 0 -1 1.60151 0.379705 4.6214 16.9058 -0.0115283 0.00215872 0.0358954 -0.00077021 0.0337253 3.80363e-06 
371 2 0 1 1.58189 8.67485 1.08207 16.2571 0.0725313 -0.0325023 0.0413558 -0.000644296 0.0410515 2.14056e-05 
366 1 1 0 0 6.58333 3.84627 15.7986 -0.037034 0.00307969 -0.00234767 0 -0.505214 0.000745325 
367 2 0 1 1.57409 6.1978 3.58935 15.3538 0.00290975 0.00522974 -0.00548519 -0.00267868 0.039259 1.90078e-07 
368 2 0 -1 1.57419 6.19767 3.58956 15.354 0.00250865 0.00587619 -0.00704178 0.00919476 0.039225 4.10143e-07 
781 1 1 0 0 2.00405 9.04476 15.4927 0.0146976 -0.0142913 -0.0056556 0 -0.487481 0.000243107 
840 2 0 -1 1.59027 0.535842 1.54265 19.2425 0.012768 0.0260261 0.0544198 0.00371461 0.033958 1.01651e-05 
782 1 1 0 0 2.92105 9.64206 16.2938 -0.0578152 8.44706e-05 0.0671444 0 -0.519611 0.00422031 
372 2 0 -1 1.582 8.67459 1.08222 16.2569 0.0714476 -0.0320412 0.0403682 -0.00064213 0.0410165 2.0695e-05 
415 2 0 1 1.56756 5.02588 5.4342 19.0964 -0.00272182 -0.052884 0.0701051 -0.0081904 0.0353472 2.0716e-05 
648 2 0 -1 1.59923 7.03016 7.78109 17.5674 0.0115196 -0.00799269 0.021639 -0.000314606 0.0237046 1.77293e-06 
647 2 0 1 1.59918 7.02974 7.7812 17.5675 0.0177847 -0.00746207 0.0211517 0.000921284 0.0237146 2.18649e-06 
589 1 1 0 0 3.85828 3.2925 17.3611 0.00727817 0.0730545 -0.00719387 0 -0.487843 0.00292519 
590 1 1 0 0 2.80801 2.47116 17.4988 0.0262078 0.0586638 -0.00195882 0 -0.504385 0.00222124 
591 2 0 1 1.59292 3.2953 2.86017 17.4156 0.0329746 0.0626634 -0.0032369 -0.00342589 0.0317986 1.3421e-05 
592 2 0 -1 1.59284 3.29523 2.86011 17.4156 0.0318533 0.0619443 -0.00258553 -0.00100018 0.0318159 1.29566e-05 
617 1 1 0 0 2.35555 8.05204 18.6397 0.108489 -0.0770563 -0.029973 0 -0.527498 0.0100016 
618 1 1 0 0 2.60388 6.78385 18.828 0.0280561 -0.0803588 -0.0166565 0 -0.49992 0.00404354 
619 2 0 1 1.56084 2.4467 7.46354 18.7122 0.0628878 -0.0830609 -0.0376438 -0.022412 0.0571581 3.37244e-05 
620 2 0 -1 1.56068 2.44658 7.46347 18.7123 0.0636768 -0.0840776 -0.0376676 -0.0220804 0.0572093 3.44191e-05 
82 1 1 0 0 3.86969 6.63097 16.1742 0.0729719 0.0422646 0.0795755 0 -0.510067 0.00722657 
416 2 0 -1 1.56752 5.02582 5.4342 19.0965 -0.00302454 -0.0534726 0.0688976 -0.00391929 0.0353547 2.03365e-05 
414 1 1 0 0 4.75494 5.31983 19.6692 -0.0287238 0.00711134 0.111264 0 -0.502794 0.00712544 
83 2 0 1 1.57827 4.21591 6.09722 16.0077 0.0483826 0.0377667 0.0385875 -0.00329861 0.0405342 1.4037e-05 
81 1 1 0 0 4.56558 5.53029 15.8343 0.0195209 0.0456186 0.00100727 0 -0.494666 0.00132406 
838 1 1 0 0 0.801682 1.02136 19.5026 0.0492822 -0.00417184 0.0260276 0 -0.505636 0.00167909 
624 2 0 -1 1.59868 5.22196 9.23996 20.1387 -0.0130038 -0.0608352 0.0107976 -0.0022876 0.0237558 1.06405e-05 
70 1 1 0 0 9.82426 9.26037 19.6307 0.0522629 -0.046662 0.00116619 0 -0.50276 0.00263945 
839 2 0 1 1.59052 0.535945 1.5426 19.2424 0.0134322 0.0262404 0.0538372 0.000962673 0.0338953 1.00475e-05 
764 2 0 -1 1.5648 6.43843 2.06725 18.7551 0.0242956 0.00342919 -0.0384047 -0.00181211 0.0406669 5.54462e-06 
761 1 1 0 0 6.25625 1.71607 18.2668 0.00341408 -0.032273 -0.00832527 0 -0.509612 0.000603409 
762 1 1 0 0 6.6838 2.48331 19.2499 0.00547965 0.0139029 -0.0497034 0 -0.488621 0.00144803 
413 1 1 0 0 5.26777 5.57994 18.4652 -0.00943808 -0.136375 0.10038 0 -0.485045 0.0154618 
783 2 0 1 1.59097 2.52476 9.36971 15.923 -0.0175996 -0.0139613 0.0300679 -0.00504135 0.0418232 3.80714e-06 
621 1 1 0 0 5.46637 8.70604 19.8553 -0.0178326 -0.0627025 0.00275816 0 -0.491696 0.00228847 
623 2 0 1 1.59865 5.22193 9.23994 20.1387 -0.0125528 -0.0605017 0.0100493 -0.00341796 0.023764 1.04732e-05 
89 1 1 0 0 0.967187 5.22688 20.0904 0.00307163 -0.0501544 -0.0439988 0 -0.486545 0.00239791 
747 2 0 1 1.57619 9.69119 19.7391 1.58414 0.0386519 0.0587002 0.00148098 -0.00305716 0.0405898 1.31959e-05 
628 2 0 -1 1.61033 4.17204 18.6518 4.92201 0.00425483 0.0481077 -0.0146168 -0.0136278 0.0264518 7.16042e-06 
627 2 0 1 1.61017 4.17205 18.6518 4.92203 0.00382033 0.0476469 -0.0147848 -0.0153786 0.0264948 7.14815e-06 
495 2 0 1 1.57509 8.66638 10.3772 1.75869 -0.0506622 -0.0562057 -0.0218333 -0.00238646 0.0518525 1.65497e-05 
748 2 0 -1 1.57567 9.69121 19.7392 1.58444 0.0379053 0.0580229 0.00456322 0.00549948 0.0407261 1.29241e-05 
496 2 0 -1 1.57487 8.66614 10.3772 1.75845 -0.0525945 -0.0559307 -0.021123 0.00214872 0.0519176 1.6916e-05 
321 1 1 0 0 4.68972 10.9415 3.08996 0.0326759 -0.0312896 0.0610152 0 -0.515833 0.00310146 
61 1 1 0 0 10.0086 15.6869 3.13743 -0.0218594 -0.0111437 -0.0551454 0 -0.499212 0.00195832 
323 2 0 1 1.57732 5.05558 10.4453 3.13567 -0.0173901 -0.0480343 0.00191943 -0.00458495 0.0441881 7.01047e-06 
324 2 0 -1 1.57757 5.05562 10.4452 3.13573 -0.0166514 -0.0491941 0.0012954 0.00613069 0.0441295 7.27187e-06 
385 1 1 0 0 4.28187 16.6671 2.3228 0.118612 0.000488811 0.10145 0 -0.498506 0.0130954 
386 1 1 0 0 4.69781 15.5686 1.53838 0.101042 0.0604856 -0.00879065 0 -0.465455 0.00749633 
387 2 0 1 1.64531 4.48938 16.2015 1.97383 0.108443 0.0135731 0.0212047 0.00467826 0.0141792 3.30909e-05 
388 2 0 -1 1.64551 4.4895 16.2013 1.97367 0.106702 0.0180515 0.0238873 -0.0064374 0.0141358 3.28316e-05 
389 1 1 0 0 5.2356 13.2779 0.281914 -0.0595468 0.0179129 0.0191003 0 -0.492355 0.00227466 
390 1 1 0 0 4.14573 13.026 0.994146 -0.0333359 -0.00381047 0.0637065 0 -0.511623 0.00278685 
391 2 0 1 1.55949 4.67606 13.1363 0.6899 -0.0204813 0.0110995 0.0132189 -0.00241602 0.0441353 1.92463e-06 
392 2 0 -1 1.55981 4.67587 13.1363 0.689971 -0.0181532 0.0107656 0.0120109 -0.000430424 0.0440528 1.57276e-06 
405 1 1 0 0 8.38249 18.0937 4.43587 -0.0587394 0.0163101 0.0665655 0 -0.495081 0.0043796 
696 2 0 -1 1.61902 0.57348 16.1382 0.437243 -0.0468287 -0.0157531 -0.0818394 -0.000322093 0.0143052 2.43681e-05 
407 2 0 1 1.57034 8.23219 18.761 4.5813 -0.0373521 0.0252915 0.029989 0.0124304 0.0423392 8.13278e-06 
408 2 0 -1 1.56969 8.23224 18.7604 4.58117 -0.0380436 0.027752 0.0304103 0.00911133 0.0425188 8.54469e-06 
433 1 1 0 0 7.15176 12.552 2.62548 -0.0499539 -0.00769513 -0.015466 0 -0.487363 0.00150182 
434 1 1 0 0 7.79062 13.6245 3.08319 -0.0225282 0.010735 -0.090896 0 -0.518333 0.00477607 
435 2 0 1 1.5768 7.50316 13.1595 2.87227 -0.0365788 0.00527366 -0.053919 -0.0039897 0.0426954 1.14257e-05 
436 2 0 -1 1.57667 7.5028 13.1591 2.87209 -0.0366158 0.00371284 -0.0536143 0.00198325 0.0427346 1.12842e-05 
99 2 0 1 1.64084 0.701415 17.0512 4.39835 0.108404 0.0456673 0.0190281 -0.0112835 0.011351 3.81155e-05 
442 1 1 0 0 1.68082 11.0553 1.65428 -0.0845965 0.0227516 -0.0368663 0 -0.487133 0.00485589 
443 2 0 1 1.57826 2.06913 10.6502 1.25776 -0.0670229 0.00517678 -0.03355 0.000806378 0.0272248 1.50519e-05 
444 2 0 -1 1.57807 2.06928 10.6501 1.25755 -0.0646315 0.00629607 -0.0358897 0.00718709 0.0272736 1.47818e-05 
453 1 1 0 0 7.34006 16.5976 0.9684 -0.0133844 0.0440355 -0.0735541 0 -0.48501 0.00404695 
454 1 1 0 0 8.58242 17.1296 0.979929 -0.0433599 0.103452 -0.0335389 0 -0.475067 0.00736833 
455 2 0 1 1.59963 7.95285 16.8282 0.964158 -0.0219385 0.0592362 -0.0518281 -0.0138734 0.0158995 1.8187e-05 
456 2 0 -1 1.59969 7.9529 16.8283 0.964122 -0.0242178 0.0592478 -0.0530929 -0.0099499 0.0158804 1.86381e-05 
325 1 1 0 0 5.97346 16.1106 4.68685 0.0777147 0.00660389 -0.0139728 0 -0.503209 0.00337498 
485 1 1 0 0 1.85468 14.134 2.56071 0.0649904 -0.0546505 -0.104092 0 -0.475204 0.00970049 
486 1 1 0 0 1.92981 13.3416 3.70975 0.0885833 -0.0243644 -0.0761413 0 -0.480405 0.00765374 
487 2 0 1 1.64037 1.88395 13.7135 3.13437 0.0720147 -0.0423809 -0.0807771 0.00623312 0.00718269 3.60937e-05 
488 2 0 -1 1.63986 1.88395 13.7135 3.13431 0.0710239 -0.0411022 -0.0816566 0.0113692 0.0073023 3.59929e-05 
489 1 1 0 0 1.44061 19.3278 1.84633 0.0423994 0.010553 0.0454821 0 -0.476066 0.00213822 
490 1 1 0 0 2.75289 19.0423 1.91885 0.0322226 0.0347871 0.0308569 0 -0.497701 0.00172049 
491 2 0 1 1.57541 2.13573 19.1579 1.86039 0.0350949 0.0315037 0.0198791 -0.0111512 0.027312 7.23289e-06 
492 2 0 -1 1.57517 2.13568 19.1578 1.86035 0.0348116 0.0306116 0.0212761 -0.0147971 0.0273691 7.37483e-06 
493 1 1 0 0 8.19862 10.5068 1.4484 -0.0808043 -0.0884025 -0.0205351 0 -0.526146 0.00793751 
605 1 1 0 0 9.70668 13.4534 1.22189 -0.0697154 0.0110788 -0.0608907 0 -0.49606 0.00467168 
100 2 0 -1 1.64104 0.701613 17.0512 4.39801 0.10612 0.0455117 0.0220728 -0.00953129 0.011295 3.70316e-05 
98 1 1 0 0 1.1433 16.9182 3.89083 0.0855674 0.0233596 0.0355318 0 -0.484389 0.00490783 
745 1 1 0 0 9.8572 19.7573 0.92066 0.0404128 0.0725393 0.00280204 0 -0.498921 0.00371072 
187 2 0 1 1.59878 6.17052 20.1508 2.1317 0.020262 0.0349197 0.0349077 0.00347838 0.0348131 7.61948e-06 
694 1 1 0 0 0.701401 16.823 0.503454 -0.0261498 -0.0296885 -0.0921097 0 -0.483271 0.00540208 
626 1 1 0 0 4.53243 19.2344 4.68912 -0.0203433 0.0688317 0.00522367 0 -0.487461 0.00278395 
695 2 0 1 1.61908 0.573358 16.1379 0.437249 -0.0449194 -0.0136237 -0.0816229 0.0044353 0.0142944 2.3679e-05 
185 1 1 0 0 6.60265 19.6366 2.33241 0.0453535 0.0307716 0.00172705 0 -0.497244 0.00161632 
746 1 1 0 0 9.54017 19.7176 2.21652 0.00917094 0.0672519 -0.0104461 0 -0.506498 0.00253512 
494 1 1 0 0 9.27157 10.2912 2.21104 -0.0453521 -0.0224255 -0.0631745 0 -0.493433 0.00352137 
693 1 1 0 0 0.468364 15.4753 0.335647 -0.0861096 -0.0173304 -0.0905737 0 -0.479145 0.00855719 
406 1 1 0 0 8.06672 19.3437 4.78626 -0.0311865 0.0360091 0.0166122 0 -0.511852 0.00136819 
188 2 0 -1 1.59835 6.17064 20.1506 2.13194 0.0210579 0.0326425 0.0331258 0.01223 0.0349146 7.24861e-06 
441 1 1 0 0 2.43105 10.2445 0.910192 -0.0574217 -0.00318994 -0.0242716 0 -0.49401 0.00209459 
97 1 1 0 0 0.226125 17.1926 4.93425 0.133555 0.0864346 0.0229956 0 -0.479619 0.0138886 
49 1 1 0 0 2.66514 10.8983 5.85051 -0.0036283 0.0328224 -0.0482456 0 -0.511932 0.00183741 
50 1 1 0 0 2.1089 11.7092 6.71722 -0.00434175 -0.0386938 0.0156542 0 -0.508591 0.000946693 
51 2 0 1 1.56548 2.37817 11.3258 6.24433 -0.00828647 -0.0110643 -0.0243468 -0.0022965 0.0523035 2.10063e-06 
52 2 0 -1 1.56529 2.37815 11.3259 6.24445 -0.00915532 -0.0114687 -0.0249945 -0.0056101 0.052354 2.30294e-06 
65 1 1 0 0 9.2269 13.393 5.86173 0.0493471 -0.0193483 -0.00205949 0 -0.511617 0.00151253 
67 2 0 1 1.56033 9.31573 13.4775 6.4807 0.0477538 -0.0179072 -0.00731698 -0.000772085 0.048429 7.07958e-06 
68 2 0 -1 1.56046 9.31594 13.4776 6.48151 0.0483559 -0.0193544 -0.00739322 0.00340342 0.0484004 7.40265e-06 
676 2 0 -1 1.57887 3.78488 12.3452 9.18531 0.014291 -0.0558343 -0.0199349 -0.00637746 0.0563761 9.99805e-06 
347 2 0 1 1.55735 9.67095 19.7772 8.13556 0.00311402 -0.00210227 -0.0321952 0.00567579 0.0434708 2.8659e-06 
262 1 1 0 0 1.87177 19.1693 8.22856 -0.00523601 -0.0630803 -0.00516023 0 -0.494484 0.00216804 
127 2 0 1 1.54225 9.29969 16.6998 7.05216 -0.097734 -0.00387638 0.107365 0.0119656 0.0631519 5.65328e-05 
836 2 0 -1 1.61937 6.03914 18.0478 8.07435 -0.0645275 -0.0339485 0.00691411 0.000206002 0.0410419 1.43031e-05 
835 2 0 1 1.61933 6.03901 18.0479 8.07457 -0.064563 -0.0341042 0.00692503 -0.00104577 0.0410521 1.43461e-05 
834 1 1 0 0 5.67964 18.2214 8.6103 -0.0586541 -0.0765228 -0.00265949 0 -0.510574 0.00500091 
66 1 1 0 0 9.45945 13.511 7.14916 0.0637848 -0.0110931 0.00410387 0 -0.50283 0.00226223 
520 2 0 -1 1.62824 6.72628 14.6317 9.05822 0.0139586 0.00950677 -0.0310992 -0.00224594 0.032091 3.34948e-06 
479 2 0 1 1.60599 8.23706 10.3238 5.6057 0.0371477 -0.0161591 0.0126153 -0.00442064 0.0321559 4.83921e-06 
257 1 1 0 0 2.58768 15.1023 6.30847 0.0378927 0.0179437 0.0276149 0 -0.51006 0.00135486 
258 1 1 0 0 3.81099 14.9312 6.94389 0.0142149 0.0326354 0.050532 0 -0.490478 0.00205378 
259 2 0 1 1.64042 3.14567 15.0353 6.60516 0.0267238 0.00467566 0.0234515 0.00260402 0.0301162 3.44258e-06 
260 2 0 -1 1.64039 3.14586 15.0353 6.6053 0.025626 0.00556503 0.0224328 -0.000791304 0.0301235 3.17668e-06 
261 1 1 0 0 2.23462 19.0682 6.92769 0.0224687 0.00493459 0.0113743 0 -0.492528 0.000354014 
348 2 0 -1 1.55729 9.67133 19.777 8.13551 0.00167146 -0.0015882 -0.0322477 0.00452705 0.0434821 2.82802e-06 
263 2 0 1 1.61144 2.02242 19.1123 7.58135 -0.00231891 -0.0268587 -0.00133849 0.000376405 0.0282893 1.94293e-06 
264 2 0 -1 1.61091 2.02235 19.1122 7.58167 -0.00129728 -0.0268888 -0.00436287 0.00323123 0.0284198 2.00398e-06 
309 1 1 0 0 5.92514 12.9789 5.38625 0.0105021 -0.0920539 -0.0397021 0 -0.525039 0.00546179 
310 1 1 0 0 5.28822 11.9187 5.8898 -0.0125833 -0.0585776 -0.00683441 0 -0.519381 0.00195474 
311 2 0 1 1.57814 5.63071 12.4666 5.67221 -0.00266898 -0.0839471 -0.0336249 -0.00525945 0.0616707 2.18797e-05 
312 2 0 -1 1.57824 5.63067 12.4666 5.67212 -0.00302795 -0.0853295 -0.0329085 -0.0111485 0.0616516 2.25753e-05 
313 1 1 0 0 2.78088 15.4946 9.56705 -0.00231008 -0.13653 0.0189684 0 -0.504249 0.0102166 
315 2 0 1 1.58739 3.32053 15.5472 9.9911 -0.00999562 -0.0712022 0.0301705 -0.00433164 0.0453173 1.62492e-05 
316 2 0 -1 1.58744 3.32085 15.5473 9.99126 -0.0106068 -0.0707275 0.0305311 -0.0104878 0.0453111 1.63439e-05 