ITEM: TIMESTEP
35000
ITEM: NUMBER OF ATOMS
864
ITEM: BOX BOUNDS pp pp pp
0.0000000000000000e+00 2.0147801999999999e+01
0.0000000000000000e+00 2.0147801999999999e+01
0.0000000000000000e+00 2.0147801999999999e+01
ITEM: ATOMS id type q c_1a[1] c_1a[2] x y z vx vy vz c_1a[3] c_peatom c_keatom 
5 1 1 0 0 8.19656 3.23101 1.02263 0.095067 -0.0109396 -0.108073 0 -0.514362 0.011201 
7 2 0 1 1.54756 7.87417 3.7791 1.01214 0.0559434 -0.026898 -0.100595 -0.00173831 0.0556843 3.72628e-05 
8 2 0 -1 1.54776 7.87393 3.77946 1.01224 0.0568211 -0.0285642 -0.101296 -0.00190234 0.0556223 3.81518e-05 
33 1 1 0 0 2.91509 7.64168 1.34408 -0.018813 -0.0155346 0.0580591 0 -0.513026 0.002132 
34 1 1 0 0 2.48847 6.68675 2.17227 0.111147 -0.0649218 0.0896779 0 -0.505667 0.0132295 
35 2 0 1 1.58061 2.71421 7.17729 1.7618 0.047534 -0.0227004 0.0440976 0.00205209 0.047794 1.25923e-05 
36 2 0 -1 1.58038 2.71411 7.17702 1.76206 0.047186 -0.02434 0.0451912 0.00268152 0.0478421 1.29764e-05 
768 2 0 -1 1.59234 3.31125 1.86302 0.388955 -0.0375431 0.0210856 -0.00510175 -0.00402843 0.048347 5.04565e-06 
767 2 0 1 1.59249 3.31121 1.863 0.388986 -0.0358544 0.0221478 -0.00627386 -0.00370124 0.0483041 4.86811e-06 
187 2 0 1 1.6074 5.71697 0.386032 2.56606 -0.0375436 -0.0596268 -0.071194 -0.00457148 0.0433461 2.67953e-05 
747 2 0 1 1.64683 9.48386 0.572457 2.03901 0.014962 0.0535218 0.0161872 0.0102371 0.00982155 9.14336e-06 
186 1 1 0 0 5.10272 0.645577 2.51943 -0.0501972 -0.091761 -0.0715907 0 -0.511609 0.00863582 
662 1 1 0 0 9.66342 7.10568 3.93286 0.0413453 -0.098581 -0.0422107 0 -0.50764 0.00710074 
188 2 0 -1 1.60704 5.71695 0.386127 2.56614 -0.0382738 -0.0601439 -0.0711213 0.000395578 0.0434383 2.7039e-05 
189 1 1 0 0 4.0782 3.93954 2.41254 0.0138349 -0.048441 -0.00439797 0 -0.506348 0.00137467 
213 1 1 0 0 8.28627 3.71348 4.28434 0.0154944 -0.112431 -0.00229279 0 -0.525285 0.00692696 
191 2 0 1 1.58463 4.75282 3.99829 2.45789 0.00432492 -0.0147359 -0.0167869 0.00681021 0.0485036 1.47303e-06 
192 2 0 -1 1.58497 4.75238 3.99826 2.45788 0.0066793 -0.0141258 -0.0167012 0.00354528 0.0484133 1.4199e-06 
233 1 1 0 0 6.41622 7.58298 4.14956 -0.0900873 0.0365174 0.0268667 0 -0.489508 0.00546748 
234 1 1 0 0 5.57888 6.53386 3.75945 -0.0618905 0.00472311 0.0186133 0 -0.481343 0.00225729 
235 2 0 1 1.6318 6.01855 7.07069 3.97504 -0.0643759 0.0072825 0.0173096 0.00313505 0.0160848 1.20104e-05 
236 2 0 -1 1.63192 6.01893 7.07096 3.97521 -0.0635917 0.00841611 0.0186981 0.00208274 0.016055 1.19126e-05 
216 2 0 -1 1.58909 7.93109 4.19427 4.56707 0.0101111 -0.0868178 -0.0297327 0.0133402 0.0618911 2.30835e-05 
92 2 0 -1 1.59721 0.934292 4.71599 0.413799 0.0224159 0.0317268 -0.00846761 0.00649519 0.0351342 4.29936e-06 
89 1 1 0 0 0.724922 5.32808 0.691316 0.015574 0.0488277 -0.0572239 0 -0.495054 0.00317224 
746 1 1 0 0 9.59174 0.889805 2.68573 0.0610929 0.10008 0.00449367 0 -0.477095 0.00740127 
215 2 0 1 1.58885 7.93103 4.1945 4.56727 0.00938094 -0.0875317 -0.0303153 0.0145795 0.0619499 2.35399e-05 
566 1 1 0 0 2.00815 4.98256 4.59768 0.0380839 -0.000866212 -0.0565921 0 -0.482944 0.00250166 
401 1 1 0 0 7.96076 6.7187 1.35394 -0.0534411 0.029282 -0.0322823 0 -0.496437 0.00255635 
493 1 1 0 0 8.3026 9.93602 2.08338 0.0515954 0.0414721 0.0147127 0 -0.513241 0.00247193 
402 1 1 0 0 8.5785 7.5766 0.515313 0.0285176 -0.0329854 -0.0646479 0 -0.491835 0.00326866 
558 1 1 0 0 0.362427 1.15784 3.98256 -0.0518496 0.0197765 -0.00688862 0 -0.508016 0.0016809 
185 1 1 0 0 6.34324 0.119067 2.66453 -0.0239759 -0.0207577 -0.0659128 0 -0.509404 0.00287602 
565 1 1 0 0 1.41324 4.49601 3.43336 -0.0596069 0.00417694 -0.0102925 0 -0.494116 0.00197624 
560 2 0 -1 1.61574 0.661157 0.627985 4.34539 -0.0576928 0.042433 -0.00407355 -0.00209406 0.0455747 1.37292e-05 
765 1 1 0 0 2.80796 1.42036 0.467064 -0.0303699 0.0183139 -0.0412276 0 -0.513056 0.00158978 
18 1 1 0 0 2.50088 8.36963 4.60128 0.014342 0.00161527 0.0316255 0 -0.482496 0.000649617 
91 2 0 1 1.59767 0.934263 4.71605 0.414008 0.0235233 0.0285966 -0.00846525 0.00319803 0.0350279 3.8675e-06 
567 2 0 1 1.62855 1.69504 4.72478 3.98435 7.9857e-05 0.0030297 -0.0250267 0.00298675 0.0195148 1.71241e-06 
6 1 1 0 0 7.59137 4.37552 1.01589 0.0186326 -0.0531738 -0.106347 0 -0.506251 0.0077861 
404 2 0 -1 1.61543 8.24224 7.134 0.953466 -0.0206809 -0.0118966 -0.0373901 0.0159373 0.0288082 5.75348e-06 
568 2 0 -1 1.62822 1.69481 4.72464 3.98412 -0.000490886 0.00210797 -0.0253774 0.000324978 0.0195994 1.72991e-06 
559 2 0 1 1.61557 0.661092 0.628087 4.34529 -0.0569542 0.0413152 -0.00338769 -0.0036459 0.0456197 1.3258e-05 
748 2 0 -1 1.64705 9.48382 0.572468 2.03892 0.0143423 0.0522596 0.0138135 0.0104654 0.00977197 8.55851e-06 
190 1 1 0 0 5.40762 3.9834 2.47204 0.0119559 0.0525731 -0.0477335 0 -0.514948 0.0027874 
403 2 0 1 1.61571 8.2421 7.13373 0.953635 -0.0193905 -0.0094847 -0.0396446 0.0106337 0.0287304 5.65937e-06 
745 1 1 0 0 9.38302 0.267701 1.4473 -0.0221074 0.0263604 0.0325815 0 -0.485892 0.00120689 
322 1 1 0 0 5.02165 9.76164 2.88987 -0.01577 0.018458 0.0574249 0 -0.488062 0.00208947 
557 1 1 0 0 0.996524 0.179718 4.68495 -0.0564781 0.0427259 0.0222023 0 -0.519111 0.00296095 
482 1 1 0 0 3.38787 2.28631 4.8204 0.0176739 -0.0316851 -0.108193 0 -0.517406 0.00699999 
214 1 1 0 0 7.5883 4.64294 4.94043 -0.00151973 -0.0968618 -0.0281439 0 -0.522581 0.00547046 
766 1 1 0 0 3.83822 2.29027 0.306253 -0.0404881 0.0374557 0.0260437 0 -0.512562 0.00199996 
90 1 1 0 0 1.15765 4.15838 0.167564 0.00653908 0.00444982 0.0157464 0 -0.502827 0.000166915 
622 1 1 0 0 5.02593 9.64894 0.0737636 0.0119604 0.0585045 0.00144974 0 -0.484726 0.00191795 
542 1 1 0 0 0.484483 5.94438 7.71921 -0.00690738 0.0279307 -0.00871109 0 -0.503837 0.000485796 
687 2 0 1 1.5845 5.48484 8.64649 7.41572 0.0150929 0.0322881 -0.00272322 -0.00571235 0.0306643 3.47224e-06 
686 1 1 0 0 5.87739 8.68853 7.97109 -0.019998 0.0572172 0.0221286 0 -0.4868 0.00223805 
685 1 1 0 0 5.06189 8.54199 6.93202 0.0522768 -0.0212445 -0.00909732 0 -0.496454 0.00175616 
37 1 1 0 0 7.55211 6.66554 6.9814 -0.034788 -0.00373905 0.0208264 0 -0.513561 0.000891222 
38 1 1 0 0 7.86527 5.69743 7.82172 -0.0437329 -0.0163762 0.0189509 0 -0.5166 0.00136532 
39 2 0 1 1.57299 7.70054 6.17213 7.39902 -0.0366612 -0.00641024 0.0123839 0.00486308 0.0546003 4.14958e-06 
40 2 0 -1 1.5732 7.70053 6.17241 7.39875 -0.0370685 -0.00664245 0.0131962 0.0178567 0.0545517 4.88353e-06 
173 1 1 0 0 2.75675 5.192 9.02997 -0.0899808 -0.0472089 -0.0870555 0 -0.497304 0.00962427 
480 2 0 -1 1.61391 8.57223 9.4995 5.96921 0.0283434 0.0418338 0.0336682 0.0155629 0.0262611 1.03154e-05 
521 1 1 0 0 9.8697 1.42272 5.56866 0.0473395 -0.0430455 0.063978 0 -0.521485 0.00440101 
218 1 1 0 0 6.38264 3.70475 9.93989 0.0329815 0.074311 -0.0527756 0 -0.500511 0.0050504 
791 2 0 1 1.58149 7.46571 0.408106 10.0161 0.0041846 -0.0311785 0.0129915 0.00199777 0.0452416 3.09674e-06 
792 2 0 -1 1.58156 7.46557 0.407885 10.0162 0.00353245 -0.0329862 0.0141324 0.00501535 0.0452253 3.51745e-06 
201 1 1 0 0 4.11541 4.59756 6.68937 -0.022003 0.0365705 0.000720194 0 -0.483319 0.000979447 
202 1 1 0 0 4.5232 5.84851 6.34977 -0.0479744 0.0258378 -0.0190427 0 -0.475445 0.001791 
203 2 0 1 1.61372 4.28783 5.20895 6.54929 -0.0334691 0.0283672 -0.0152438 -0.0113205 0.0113356 6.00845e-06 
204 2 0 -1 1.61371 4.28774 5.20898 6.54929 -0.0336767 0.0262688 -0.0133673 -0.00978468 0.0113387 5.53194e-06 
484 2 0 -1 1.58 3.69522 1.93811 5.31009 -0.00456446 -0.0454093 -0.063673 0.0129321 0.0539998 1.66986e-05 
789 1 1 0 0 7.79305 0.873201 9.76567 0.00493695 -0.0595868 -0.00204954 0 -0.514085 0.00192399 
728 2 0 -1 1.61969 9.74659 3.3406 9.09487 0.0490275 -0.0144611 0.0195814 0.0154239 0.0235461 8.46504e-06 
217 1 1 0 0 5.95418 4.24965 8.79312 -0.0859444 0.035708 -0.0356406 0 -0.494368 0.00533884 
478 1 1 0 0 7.97658 9.70553 6.10301 0.020456 0.0220514 0.0497991 0 -0.500575 0.00181943 
17 1 1 0 0 1.79447 7.89741 5.69616 0.0112881 -0.010445 0.0203761 0 -0.484694 0.000350327 
409 1 1 0 0 0.252841 2.51233 7.54105 0.0452916 -0.024216 0.00974116 0 -0.526705 0.00146894 
410 1 1 0 0 1.50515 2.63975 7.97252 0.0170703 0.0686583 0.036761 0 -0.539722 0.00341707 
411 2 0 1 1.57521 0.922655 2.57721 7.73522 0.020296 0.0187558 0.0182221 -0.0037781 0.0745042 2.95029e-06 
412 2 0 -1 1.57527 0.922084 2.57707 7.73507 0.0186681 0.018612 0.0180178 0.00125558 0.0744808 2.7217e-06 
465 1 1 0 0 3.74392 0.60573 8.27236 0.00482675 0.020067 -0.0312356 0 -0.508706 0.000753458 
466 1 1 0 0 4.49776 1.63912 8.67202 0.0105758 -0.00606262 0.00989002 0 -0.510399 0.000132462 
467 2 0 1 1.58046 4.0888 1.12799 8.49423 -0.00563861 -0.005877 -0.0124755 0.00655844 0.0467523 6.77889e-07 
468 2 0 -1 1.57994 4.08883 1.12822 8.49429 -0.00636691 -0.00611832 -0.0132246 0.00180943 0.0468891 6.80784e-07 
808 2 0 -1 1.59743 2.56277 8.49394 8.96348 0.0304025 -0.00432514 -0.0167073 0.000605899 0.0461777 3.25952e-06 
807 2 0 1 1.59755 2.56277 8.49386 8.96355 0.0302089 -0.00627346 -0.0164807 0.00095079 0.0461426 3.2643e-06 
483 2 0 1 1.57996 3.69532 1.93804 5.31021 -0.00293357 -0.0465836 -0.0615343 0.00940512 0.0540178 1.60824e-05 
220 2 0 -1 1.57303 6.15697 3.9597 9.39546 -0.0194752 0.046077 -0.0195597 0.0128678 0.0383295 8.02366e-06 
688 2 0 -1 1.58466 5.48497 8.64653 7.41582 0.016671 0.0312627 -0.00259286 -0.00496246 0.0306241 3.4143e-06 
727 2 0 1 1.61988 9.74701 3.34056 9.09436 0.0479388 -0.014042 0.0200482 0.0176477 0.0235116 8.34811e-06 
219 2 0 1 1.57327 6.15709 3.95952 9.39554 -0.0216137 0.0472214 -0.0232914 0.012291 0.0382745 8.94003e-06 
581 1 1 0 0 7.37393 1.70244 7.1379 -0.0077837 0.0757681 0.0186214 0 -0.522729 0.00330495 
582 1 1 0 0 6.38774 2.07347 6.3364 0.0327116 0.0944107 -0.0287578 0 -0.513828 0.00581118 
583 2 0 1 1.57786 6.88493 1.85508 6.74501 0.0168303 0.0779104 0.00727214 0.00444103 0.0582175 1.71211e-05 
584 2 0 -1 1.57808 6.88504 1.85505 6.74502 0.0168876 0.0777878 0.00757124 0.00482948 0.0581528 1.70944e-05 
726 1 1 0 0 9.32545 3.47604 9.58555 0.0266881 0.0344554 -0.00148413 0 -0.494569 0.00102223 
806 1 1 0 0 2.59005 9.10625 8.75254 0.118438 0.000196771 0.0182989 0 -0.516954 0.0077206 
805 1 1 0 0 2.57748 7.80222 9.16178 -0.0395587 -0.0167628 -0.0381969 0 -0.501336 0.00177655 
477 1 1 0 0 9.22168 9.2188 5.80795 0.0337241 0.0693073 0.0247158 0 -0.48548 0.00352188 
481 1 1 0 0 3.92627 1.58754 5.81976 -0.0460744 -0.053121 -0.0697419 0 -0.511906 0.00527265 
479 2 0 1 1.61358 8.57198 9.49972 5.96923 0.0287316 0.0426038 0.0339341 0.00665375 0.0263285 1.01999e-05 
175 2 0 1 1.60656 2.41334 5.17299 9.56701 -0.0936818 -0.0264717 -0.102684 -0.00933769 0.0283433 5.35592e-05 
176 2 0 -1 1.60695 2.41322 5.17291 9.56716 -0.0948996 -0.0262631 -0.101569 -0.00784757 0.0282376 5.34837e-05 
20 2 0 -1 1.62448 2.14944 8.15493 5.15978 0.0304463 -0.0120893 0.0145527 -0.00537095 0.0128225 3.48381e-06 
19 2 0 1 1.62431 2.14943 8.1549 5.15972 0.0312605 -0.0114756 0.0146034 -0.00451912 0.0128741 3.5663e-06 
256 2 0 -1 1.61186 1.64079 0.816204 14.5284 -9.25717e-05 0.0281163 -0.0166719 0.00192873 0.0384788 2.85648e-06 
365 1 1 0 0 6.01324 2.95769 14.711 0.0210718 0.0516916 -0.0104258 0 -0.495141 0.00173347 
637 1 1 0 0 8.34976 2.91716 13.1233 -0.00282809 -0.063526 -0.0326606 0 -0.486172 0.00274704 
639 2 0 1 1.61497 8.87513 2.75475 12.7034 0.0280668 -0.0532127 0.0531399 -0.00961921 0.0208538 1.73653e-05 
638 1 1 0 0 9.45525 2.62134 12.3404 0.0888271 -0.069723 0.123553 0 -0.487496 0.0150605 
700 2 0 -1 1.60755 1.42855 2.06998 11.1618 -0.0322558 -0.0228914 0.0705341 -0.0104936 0.0426195 1.76574e-05 
611 2 0 1 1.56647 0.0848988 9.99306 11.3201 -0.00479519 0.00403142 -0.0537171 -0.014297 0.0368292 8.20747e-06 
255 2 0 1 1.61159 1.64066 0.815997 14.5283 -0.000492742 0.0268554 -0.0169349 0.00780764 0.038545 2.81033e-06 
156 2 0 -1 1.60572 6.01466 9.05857 10.9445 -0.00273035 0.00619429 -0.0331501 0.00354312 0.0225513 3.07752e-06 
155 2 0 1 1.60592 6.01483 9.05846 10.9443 -0.00476399 0.00614595 -0.0306701 -0.000842972 0.0224984 2.67085e-06 
254 1 1 0 0 1.66591 0.18294 14.5274 0.0329483 0.0261416 -0.0592368 0 -0.510142 0.00283719 
571 2 0 1 1.59145 8.86871 6.11638 10.9791 0.00525901 0.0622824 0.0238354 0.00761839 0.0328991 1.2048e-05 
816 2 0 -1 1.60591 9.73384 9.49395 11.817 -0.00616379 0.0474539 0.0400547 -0.00062287 0.0416542 1.03845e-05 
245 1 1 0 0 2.75784 8.3765 11.9065 -0.0385912 0.063611 -0.00713044 0 -0.505067 0.00300303 
246 1 1 0 0 3.36508 7.62327 12.8634 -0.112036 0.0957592 0.0550384 0 -0.504035 0.013305 
247 2 0 1 1.60109 3.05288 8.02001 12.3766 -0.0782512 0.0715885 0.0266439 -0.00751411 0.0387055 3.19982e-05 
248 2 0 -1 1.60133 3.05281 8.02 12.3765 -0.0767516 0.0706138 0.0270272 -0.00600269 0.0386406 3.10229e-05 
570 1 1 0 0 9.4846 5.90194 11.1976 0.0156979 0.0478828 0.00982029 0 -0.493375 0.00141678 
697 1 1 0 0 2.0209 1.99837 10.8633 -0.0717623 -0.0095486 0.0573526 0 -0.509443 0.0045855 
174 1 1 0 0 1.98266 5.10976 10.1631 -0.135885 0.00217204 -0.0931487 0 -0.491592 0.0145924 
785 1 1 0 0 7.77335 7.58802 14.5605 -0.0356753 -0.0986388 -0.022991 0 -0.475095 0.00619848 
273 1 1 0 0 4.3899 1.62444 12.3717 -0.016729 -0.0246497 -0.0133836 0 -0.496436 0.000573346 
274 1 1 0 0 5.57242 2.26955 12.1542 0.0341771 -0.0821464 0.0523784 0 -0.495878 0.0057301 
275 2 0 1 1.60514 4.99491 1.98097 12.2804 0.0128045 -0.0397066 0.0137523 0.00629395 0.0313198 5.22461e-06 
276 2 0 -1 1.60503 4.99454 1.98082 12.2805 0.0160729 -0.0383866 0.0140652 0.00390278 0.0313453 5.17588e-06 
640 2 0 -1 1.61463 8.87482 2.7547 12.7036 0.0233991 -0.0523649 0.0560218 -0.0109572 0.0209415 1.738e-05 
699 2 0 1 1.60762 1.42886 2.06998 11.1618 -0.0331086 -0.0221961 0.0713749 -0.0032126 0.0425995 1.7841e-05 
787 2 0 1 1.63171 8.18009 6.98574 14.438 0.0486372 -0.0531317 0.0141163 -0.00892867 0.0155252 1.45257e-05 
572 2 0 -1 1.59099 8.86875 6.11647 10.9791 0.00472863 0.0629088 0.023589 0.00406327 0.0330285 1.21288e-05 
813 1 1 0 0 9.54303 8.89481 11.812 0.00131616 0.062218 0.018083 0 -0.519343 0.00225762 
154 1 1 0 0 6.46914 9.17113 10.5014 -0.0106918 -0.0115266 -0.0453294 0 -0.489741 0.00123741 
781 1 1 0 0 3.52159 9.77278 15.1134 -0.0198863 0.0490046 0.059182 0 -0.503885 0.00338627 
815 2 0 1 1.60598 9.7339 9.49405 11.817 -0.00627769 0.0493056 0.0407573 0.00552076 0.041639 1.10776e-05 
253 1 1 0 0 1.68199 1.53491 14.5511 -0.0217435 0.0270654 -0.00379382 0 -0.499978 0.000655658 
266 1 1 0 0 0.248704 8.02559 14.4343 0.0443854 0.0521955 0.112719 0 -0.482793 0.00935344 
610 1 1 0 0 0.350754 9.42523 11.255 -0.00212333 0.0113704 -0.0204855 0 -0.506942 0.000297508 
421 1 1 0 0 2.77566 4.23081 13.341 -0.00724283 -2.67508e-06 0.00610885 0 -0.502055 4.82597e-05 
422 1 1 0 0 1.79272 4.7737 14.1772 -0.00991299 0.078899 -0.0500612 0 -0.503333 0.00474629 
423 2 0 1 1.65009 2.27684 4.51307 13.7489 -0.0168361 0.0344136 -0.0233273 -0.00728543 0.0317347 5.47079e-06 
424 2 0 -1 1.65012 2.27692 4.51304 13.7488 -0.0167693 0.0355124 -0.0231057 -0.0100645 0.0317284 5.73866e-06 
513 1 1 0 0 5.29634 5.32857 11.5308 -0.0354007 0.0303688 0.035107 0 -0.501392 0.00183196 
514 1 1 0 0 5.86585 5.63317 12.7094 -0.0520914 -0.00983736 0.0504699 0 -0.519157 0.00287994 
515 2 0 1 1.58755 5.58883 5.4965 12.1587 -0.0516029 0.0195833 0.0318905 0.00785418 0.0479896 1.0958e-05 
516 2 0 -1 1.5876 5.58904 5.49663 12.1591 -0.05156 0.0204595 0.0318738 0.00872446 0.0479698 1.10658e-05 
698 1 1 0 0 0.830691 2.1677 11.4692 -0.0424779 -0.0351916 0.121355 0 -0.506853 0.00955224 
153 1 1 0 0 5.49736 8.9171 11.42 0.019555 0.0396097 -0.000741012 0 -0.486117 0.00104923 
612 2 0 -1 1.56616 0.0850327 9.99291 11.3201 -0.00501878 0.0052658 -0.0530658 -0.0168442 0.0369201 8.2171e-06 
569 1 1 0 0 8.23731 6.28486 10.8324 0.00332131 0.0999161 0.0828877 0 -0.501289 0.00906563 
368 2 0 -1 1.56426 6.40783 3.4186 15.0022 0.0198543 0.0207216 0.0304828 0.00225769 0.0392266 4.68386e-06 
786 1 1 0 0 8.53565 6.4576 14.2985 0.0908631 -0.0269039 0.0589857 0 -0.491319 0.0066975 
788 2 0 -1 1.63165 8.18017 6.98577 14.438 0.0479604 -0.0528385 0.0138692 -0.00901092 0.0155401 1.4253e-05 
367 2 0 1 1.5642 6.40784 3.41877 15.0022 0.019616 0.0190956 0.0287296 0.00098262 0.0392362 4.20108e-06 
646 1 1 0 0 7.73473 8.32239 17.303 0.00466565 0.127748 -0.000503041 0 -0.503024 0.00878448 
817 1 1 0 0 8.09518 5.30964 17.4487 -0.0663491 -0.0125099 -0.00175354 0 -0.519388 0.00245219 
350 1 1 0 0 0.929735 4.16271 17.1988 0.02663 -0.0233697 -0.0702668 0 -0.511714 0.00332892 
351 2 0 1 1.575 0.435556 3.91849 16.8243 0.0136275 -0.0264585 -0.0436181 -0.00299979 0.0527861 7.4528e-06 
784 2 0 -1 1.57686 3.0047 9.52796 15.4443 0.000848916 0.0119035 0.0222165 -0.0100628 0.0437396 1.89832e-06 
84 2 0 -1 1.62887 5.00724 6.75452 15.6987 0.0271552 0.0126282 -0.00909904 0.00620885 0.0314815 2.68931e-06 
820 2 0 -1 1.58439 8.13699 4.74199 17.6528 -0.0415709 -0.00464987 0.00131004 -0.00767153 0.0450883 4.78788e-06 
819 2 0 1 1.58432 8.13706 4.74201 17.6528 -0.0404301 -0.008101 0.00257816 -0.010643 0.0451033 4.77777e-06 
818 1 1 0 0 8.15032 4.07322 17.9694 -0.0187 0.00261047 0.00157905 0 -0.492584 0.000192981 
724 2 0 -1 1.60117 5.31969 -0.037735 15.5406 -0.0534083 -0.044393 -0.0163741 -0.00259172 0.0423389 1.3589e-05 
763 2 0 1 1.60282 6.59092 1.81721 18.889 -0.0169923 0.026349 0.00916676 -0.00604774 0.0345933 2.91832e-06 
370 1 1 0 0 8.82227 1.26719 16.5577 -0.0390195 -0.0062832 0.0318082 0 -0.515325 0.00138353 
369 1 1 0 0 8.64755 1.05822 15.2626 0.012376 -0.0253428 0.0269521 0 -0.502368 0.000818067 
645 1 1 0 0 8.54777 9.27483 17.8911 0.0454739 0.0546756 0.0302692 0 -0.479785 0.00321108 
840 2 0 -1 1.5622 0.1246 1.5095 19.2515 0.0360722 0.0136696 0.0465155 -0.0176927 0.0570331 1.03631e-05 
352 2 0 -1 1.57479 0.435752 3.91855 16.8245 0.0121644 -0.0267594 -0.0438655 0.000862695 0.0528378 7.43609e-06 
371 2 0 1 1.58253 8.74308 1.13721 15.9307 -0.0181562 -0.0178624 0.0175614 0.00180656 0.0485738 2.55861e-06 
366 1 1 0 0 6.80779 3.82448 15.3224 0.0428015 0.00869862 0.0517599 0 -0.502876 0.0024656 
721 1 1 0 0 5.77683 0.223327 15.035 -0.0939554 -0.0489239 -0.0559754 0 -0.492126 0.00771625 
782 1 1 0 0 2.43372 9.31236 15.7341 -0.0206176 -0.00293802 -0.0088185 0 -0.502696 0.000274949 
624 2 0 -1 1.63946 4.83 9.1096 19.8585 0.0104609 0.0217913 0.0498408 -0.00376079 0.0131779 8.20996e-06 
723 2 0 1 1.601 5.31988 -0.0376791 15.5404 -0.0519416 -0.043315 -0.0172522 0.000388957 0.0423722 1.29905e-05 
463 2 0 1 1.61687 0.62554 10.0626 18.4884 -0.00571038 0.00986921 -0.00507075 -0.0154489 0.0337277 8.92516e-07 
372 2 0 -1 1.58319 8.74308 1.13725 15.9309 -0.0174792 -0.0176922 0.0186979 0.00187214 0.048403 2.5885e-06 
415 2 0 1 1.63095 5.20976 5.44964 19.2452 -0.0293013 0.0149411 0.0738283 -0.0103616 0.0360266 1.7633e-05 
648 2 0 -1 1.63312 8.11119 8.76427 17.5536 0.0101232 0.0765994 0.00420079 -0.00429513 0.0232876 1.60024e-05 
647 2 0 1 1.63323 8.11117 8.76426 17.5537 0.0100122 0.0764045 0.00415466 -0.00182351 0.0232593 1.58856e-05 
589 1 1 0 0 4.10786 2.95021 16.5302 0.00539013 -0.0854403 -0.00320812 0 -0.516559 0.00394531 
590 1 1 0 0 2.91972 2.73987 17.1081 0.00694847 -0.0824223 -0.00226578 0 -0.509558 0.00368054 
591 2 0 1 1.59737 3.54573 2.86002 16.8541 0.016971 -0.0671624 -0.0133092 -0.0143108 0.0501748 1.36776e-05 
592 2 0 -1 1.59729 3.54577 2.85998 16.8541 0.0159206 -0.0669005 -0.0121023 -0.0137372 0.0501987 1.33779e-05 
617 1 1 0 0 1.63337 7.13963 17.4865 -0.0644934 -0.0478833 0.0840956 0 -0.50617 0.00727001 
618 1 1 0 0 2.27298 6.49129 18.505 0.0114745 -0.0648181 0.0362161 0 -0.504325 0.0030343 
619 2 0 1 1.61488 1.96893 6.83599 17.9787 -0.0345525 -0.0357196 0.0449565 0.000508406 0.039173 1.19751e-05 
620 2 0 -1 1.6146 1.96869 6.83628 17.9781 -0.0352537 -0.0354062 0.0441128 0.00802219 0.0392404 1.19739e-05 
82 1 1 0 0 4.59001 7.29957 15.8931 0.00422226 0.0281512 -0.087858 0 -0.498127 0.00458497 
416 2 0 -1 1.63107 5.20969 5.44972 19.2453 -0.028319 0.0151357 0.0745555 -0.00617228 0.0359959 1.76468e-05 
461 1 1 0 0 0.403697 9.45132 18.6958 -0.0118257 0.0343621 -0.0229997 0 -0.502449 0.00099425 
83 2 0 1 1.62906 5.00709 6.75479 15.6988 0.0258434 0.0150006 -0.00865457 0.00292928 0.0314367 2.59773e-06 
621 1 1 0 0 4.63005 8.55007 19.4674 -0.0149351 -0.00387002 0.0980612 0 -0.482126 0.00529706 
838 1 1 0 0 0.407167 0.923648 19.1957 0.0611371 0.0248784 0.00220488 0 -0.517962 0.00234456 
464 2 0 -1 1.61701 0.625325 10.0623 18.4886 -0.0041329 0.0121867 -0.00513854 -0.00745867 0.0336977 6.23209e-07 
839 2 0 1 1.56242 0.124587 1.5095 19.2515 0.0356352 0.0135757 0.046995 -0.0150366 0.0569746 1.02185e-05 
623 2 0 1 1.63988 4.83006 9.10965 19.8585 0.0112788 0.0246059 0.0509417 -0.000440537 0.0130872 8.87353e-06 
764 2 0 -1 1.60258 6.59093 1.81726 18.8889 -0.0187089 0.0257462 0.00718211 -0.00668668 0.0346564 2.92776e-06 
761 1 1 0 0 6.18907 1.56102 18.4092 0.0322463 0.0138129 -0.0178297 0 -0.505463 0.000832407 
762 1 1 0 0 6.93832 2.10643 19.4117 -0.0558185 0.0124075 0.0544258 0 -0.494697 0.00334993 
413 1 1 0 0 5.12549 5.01264 18.6595 -0.0486359 0.0131023 0.108002 0 -0.497471 0.00763413 
783 2 0 1 1.57697 3.0044 9.52788 15.4445 0.000670772 0.0126815 0.0220433 -0.010335 0.0437125 1.93925e-06 
81 1 1 0 0 5.35761 6.2168 15.5202 0.0334738 -0.0183379 0.057997 0 -0.50095 0.00259123 
414 1 1 0 0 5.35714 5.82139 19.7534 0.00967889 0.0399834 0.0603773 0 -0.509475 0.00286933 
695 2 0 1 1.60044 0.544604 15.8013 0.211574 -0.00730782 -0.0445482 0.021796 0.00497313 0.0524335 6.75024e-06 
441 1 1 0 0 2.27553 10.2268 1.94296 0.032311 -0.0741957 -0.0710411 0 -0.519775 0.00623337 
325 1 1 0 0 5.84429 15.8486 4.30777 0.0386286 -0.0266659 -0.0445828 0 -0.508054 0.00225281 
63 2 0 1 1.56431 9.91805 15.6141 3.78084 0.0580666 0.0428496 -0.00690896 0.0118939 0.0218286 1.42965e-05 
626 1 1 0 0 3.73405 19.0713 4.45634 -0.0500105 -0.0190764 -0.0818283 0 -0.527748 0.00513944 
64 2 0 -1 1.56497 9.91806 15.6141 3.78087 0.0583392 0.0437913 -0.00570678 0.0156816 0.0216448 1.47671e-05 
321 1 1 0 0 4.40799 10.5608 3.79971 0.0541405 0.090284 0.0570219 0 -0.498266 0.00770522 
61 1 1 0 0 9.35211 15.9174 3.75855 0.0617051 0.0666163 0.0608834 0 -0.477495 0.00642485 
194 1 1 0 0 6.87675 14.9305 0.0820273 0.088989 0.00624625 -0.023858 0 -0.490053 0.00458385 
323 2 0 1 1.60703 4.68599 10.1706 3.34893 0.0376648 0.0540892 0.0413464 0.00592785 0.0270064 1.62123e-05 
385 1 1 0 0 4.48375 16.7445 1.77407 -0.0980539 0.0228227 -0.0118585 0 -0.498727 0.00552392 
386 1 1 0 0 3.89856 15.4788 1.87246 -0.142652 0.0568492 -0.0405827 0 -0.492661 0.0135616 
387 2 0 1 1.62964 4.19218 16.1157 1.8188 -0.123886 0.0326371 -0.0324442 0.000699288 0.0257974 4.65716e-05 
388 2 0 -1 1.62958 4.19199 16.1154 1.81874 -0.124851 0.0318502 -0.0321357 -0.0104888 0.0258131 4.72422e-05 
389 1 1 0 0 5.72568 12.8237 0.918179 0.0651529 -0.0217697 0.00493106 0 -0.499788 0.00254969 
390 1 1 0 0 4.42534 12.7954 0.943594 0.0803476 0.0831365 -0.00829222 0 -0.524057 0.00722264 
391 2 0 1 1.55351 5.03164 12.8135 0.950111 0.068661 0.0420961 -0.00133206 -0.0129462 0.0550078 1.76355e-05 
392 2 0 -1 1.55335 5.03167 12.8135 0.950148 0.0674005 0.0407734 -0.00131169 -0.00799092 0.055044 1.66783e-05 
405 1 1 0 0 8.45132 19.0105 4.5892 0.0405313 0.00400525 -0.0338046 0 -0.498754 0.00150599 
696 2 0 -1 1.60029 0.544163 15.8012 0.211759 -0.00778745 -0.045467 0.0206584 0.013967 0.0524712 7.20196e-06 
407 2 0 1 1.56122 7.90198 19.1118 4.92121 0.0409189 -0.0196844 0.0021116 0.0102799 0.044076 5.72095e-06 
408 2 0 -1 1.56148 7.90199 19.1117 4.92125 0.0428563 -0.0214012 0.00133142 0.0184578 0.0439983 6.80464e-06 
433 1 1 0 0 6.74497 13.1009 3.29556 0.00135233 -0.0140993 -0.0159109 0 -0.502158 0.000243928 
434 1 1 0 0 8.00002 13.5194 3.27233 0.0157913 -0.0581448 -0.0273493 0 -0.504014 0.0023535 
435 2 0 1 1.56895 7.3672 13.3209 3.25319 0.0120873 -0.0187471 -0.0214234 -0.00171408 0.044364 2.55637e-06 
436 2 0 -1 1.56879 7.3674 13.321 3.25314 0.0143138 -0.0184554 -0.0232466 -0.00160382 0.0444203 2.90059e-06 
99 2 0 1 1.58998 0.802118 16.5997 4.16805 0.0296478 -0.0466996 -0.0471004 -0.0184127 0.0398361 1.47522e-05 
442 1 1 0 0 1.19025 10.6121 1.2664 0.0181451 -0.109359 -0.0592186 0 -0.507392 0.00849095 
443 2 0 1 1.56229 1.75873 10.434 1.63052 0.0182369 -0.0753576 -0.0570066 0.00767801 0.0555734 2.4812e-05 
444 2 0 -1 1.5622 1.75888 10.434 1.63068 0.0204653 -0.0765836 -0.0555406 0.00394443 0.0556033 2.50119e-05 
453 1 1 0 0 7.72658 17.3551 2.77354 -0.101126 0.0756673 0.0639864 0 -0.483006 0.0107759 
454 1 1 0 0 7.55413 17.6738 1.49132 0.000227971 -0.0407832 -0.00333305 0 -0.503122 0.000900094 
455 2 0 1 1.5867 7.64433 17.4833 2.11562 -0.0543694 0.0305885 0.0160501 0.0128952 0.0322634 1.13964e-05 
456 2 0 -1 1.58671 7.64433 17.4834 2.11529 -0.0534103 0.0303537 0.018217 0.0151152 0.0322637 1.14049e-05 
627 2 0 1 1.59102 3.68045 18.47 4.63226 -0.0450948 -0.0419236 -0.0623892 -0.00394191 0.056404 2.05187e-05 
485 1 1 0 0 2.09943 13.0941 2.70015 -0.0186531 -0.0233965 0.073454 0 -0.504083 0.00338165 
486 1 1 0 0 1.98734 14.0998 3.6255 0.0464884 0.0483943 -0.0108535 0 -0.492218 0.00248402 
487 2 0 1 1.61354 2.07992 13.5816 3.15239 0.0179597 -0.00660205 0.0127823 0.00378398 0.0317974 1.44058e-06 
488 2 0 -1 1.6143 2.07983 13.5818 3.15266 0.0167428 -0.0077626 0.0123871 0.00268041 0.0316138 1.33164e-06 
489 1 1 0 0 1.08499 19.3706 1.54786 -0.0232654 -0.0263613 0.0545842 0 -0.505798 0.00226613 
490 1 1 0 0 2.12674 18.7579 0.940147 0.00161225 0.0428536 0.0405605 0 -0.51136 0.00187293 
491 2 0 1 1.61433 1.63361 19.0845 1.22148 -0.00529505 0.00142849 0.0452461 -0.0031575 0.0403174 5.55887e-06 
492 2 0 -1 1.61474 1.63342 19.0847 1.22166 -0.0071284 0.00210502 0.0466957 -0.00894051 0.0402126 6.12128e-06 
494 1 1 0 0 8.55101 10.7646 3.10816 0.0072223 0.0487629 0.012127 0 -0.494239 0.0013853 
605 1 1 0 0 9.46376 14.0609 0.762691 0.0502162 -0.0423093 -0.00304244 0 -0.478804 0.00232277 
100 2 0 -1 1.58986 0.80204 16.5997 4.16804 0.0297849 -0.045961 -0.0475471 -0.0244616 0.0398829 1.52228e-05 
98 1 1 0 0 1.17034 16.5244 3.60105 0.05181 -0.0227924 -0.05574 0 -0.502093 0.00339234 
496 2 0 -1 1.60411 8.44254 10.3121 2.54822 0.0400061 0.048277 0.00289031 -0.00656465 0.0396041 1.05906e-05 
97 1 1 0 0 0.468043 16.681 4.70782 0.0482097 -0.0659389 -0.0856151 0 -0.507009 0.00752684 
628 2 0 -1 1.59088 3.68045 18.4696 4.63237 -0.0443356 -0.0411318 -0.061627 -0.000290533 0.0564366 1.98794e-05 
495 2 0 1 1.60367 8.44248 10.3119 2.54788 0.0413604 0.0484349 0.00288042 -0.0144988 0.0397158 1.12592e-05 
324 2 0 -1 1.60678 4.68606 10.1706 3.3489 0.0377536 0.0555321 0.0434016 0.00156896 0.027071 1.7051e-05 
625 1 1 0 0 3.62174 17.7911 4.78829 -0.0197532 -0.0304292 -0.0507654 0 -0.512821 0.00209283 
327 2 0 1 1.58801 5.93068 15.8722 4.97453 -0.0323314 -0.01748 -0.0417473 -0.0133017 0.0433153 8.603e-06 
328 2 0 -1 1.58821 5.93082 15.8722 4.97492 -0.0318498 -0.0164745 -0.0396714 -0.010052 0.0432598 7.8271e-06 
694 1 1 0 0 1.19939 15.9224 0.0965992 0.00686659 -0.0920184 0.0666869 0 -0.512586 0.00696758 
342 1 1 0 0 9.64952 14.2908 9.28993 0.0122768 -0.0599018 -0.0561952 0 -0.497595 0.00370742 
50 1 1 0 0 2.21016 11.8741 6.66706 -0.114562 -0.00557854 -0.0201239 0 -0.505496 0.00728949 
51 2 0 1 1.58756 2.06467 11.287 6.46678 -0.0854258 -0.0062948 -0.00687291 -0.00142132 0.0387949 1.96941e-05 
52 2 0 -1 1.5873 2.06471 11.2875 6.46687 -0.0863671 -0.00849325 -0.00724774 0.00295658 0.0388689 2.02395e-05 
65 1 1 0 0 9.05594 12.5791 6.27733 -0.00390832 -0.00947546 0.0902972 0 -0.517459 0.00443946 
67 2 0 1 1.58096 8.89594 13.2094 6.41884 -0.0116591 0.0190142 0.0641642 -0.00281102 0.0530285 1.23201e-05 
68 2 0 -1 1.58118 8.89603 13.2091 6.41878 -0.0108602 0.0166785 0.0641568 -0.00298538 0.0529694 1.20493e-05 
676 2 0 -1 1.5671 4.35366 11.8358 9.3487 0.0250653 0.0184755 0.0538561 0.0065045 0.0410764 1.0404e-05 
347 2 0 1 1.57826 9.98485 19.5485 7.81368 0.0389659 -0.038202 0.057131 0.00126506 0.0506954 1.66462e-05 
262 1 1 0 0 0.915511 19.5117 7.69338 0.00349734 -0.0684924 -0.0122241 0 -0.486194 0.00260867 
127 2 0 1 1.54152 8.83744 16.6175 6.87214 -0.0334163 0.00296299 -0.0113455 -0.00616026 0.0641538 3.41999e-06 
836 2 0 -1 1.62121 5.37075 17.9985 7.73239 -0.0353215 0.0257918 -0.0512409 0.0013179 0.0183232 1.2105e-05 
835 2 0 1 1.62138 5.37087 17.9987 7.73215 -0.0329306 0.0298567 -0.0535813 -0.00177224 0.0182782 1.293e-05 
834 1 1 0 0 5.12811 17.5205 8.11976 0.000674363 0.0178076 -0.0268577 0 -0.48911 0.000558466 
66 1 1 0 0 8.73945 13.8553 6.53561 -0.00746267 -0.00667116 0.0392144 0 -0.513178 0.000880494 
520 2 0 -1 1.56916 6.33234 14.6323 8.3806 -0.0449765 0.0969343 -0.0245574 0.00218799 0.0474822 3.20659e-05 
346 1 1 0 0 9.99885 19.1835 7.18162 0.0538931 -0.0592277 0.0670491 0 -0.497739 0.0058636 
257 1 1 0 0 2.18832 15.2317 6.64014 0.0591862 0.0451801 -0.00534493 0 -0.480004 0.00299568 
258 1 1 0 0 3.5109 14.93 6.66747 0.0303099 -0.00349988 0.0383158 0 -0.49609 0.00128961 
259 2 0 1 1.61105 2.86802 15.0553 6.65813 0.0445831 0.0165056 -0.000370856 -0.000951545 0.0212949 6.02854e-06 
260 2 0 -1 1.61126 2.86821 15.0553 6.65817 0.0439695 0.016082 -9.46476e-05 -0.00246892 0.0212501 5.8569e-06 
261 1 1 0 0 1.94657 18.6568 7.56346 0.0462584 -0.00112633 -0.0633669 0 -0.507201 0.00330943 
348 2 0 -1 1.57868 9.98474 19.5486 7.81389 0.0389637 -0.0390905 0.0564339 0.00304974 0.0505881 1.66332e-05 
263 2 0 1 1.60722 1.47954 19.047 7.63032 0.0229782 -0.0236501 -0.0444714 -0.00395649 0.0295528 8.204e-06 
264 2 0 -1 1.60722 1.4802 19.0465 7.63029 0.0250805 -0.027062 -0.0444678 -0.00570058 0.0295545 8.96758e-06 
309 1 1 0 0 5.5099 12.6103 5.63813 -0.0175329 0.0778652 0.0247936 0 -0.506398 0.00375487 
310 1 1 0 0 5.31838 11.8628 6.74446 0.00915774 -0.0433776 -0.0477611 0 -0.490157 0.00228278 
311 2 0 1 1.59103 5.42908 12.2574 6.15436 -0.0156315 0.0167106 -0.00454549 0.0149131 0.0346844 1.89597e-06 
312 2 0 -1 1.59079 5.42913 12.2573 6.15455 -0.0160688 0.0157082 -0.0028675 0.0111856 0.0347486 1.61856e-06 
313 1 1 0 0 3.10262 15.8793 10.0065 0.00586743 -0.0537936 0.00214808 0 -0.493294 0.00157653 
673 1 1 0 0 4.59124 11.2424 9.29615 0.015965 0.0294261 0.126204 0 -0.506335 0.00916437 