ITEM: TIMESTEP
15000
ITEM: NUMBER OF ATOMS
864
ITEM: BOX BOUNDS pp pp pp
0.0000000000000000e+00 2.0147801999999999e+01
0.0000000000000000e+00 2.0147801999999999e+01
0.0000000000000000e+00 2.0147801999999999e+01
ITEM: ATOMS id type q c_1a[1] c_1a[2] x y z vx vy vz c_1a[3] c_peatom c_keatom 
5 1 1 0 0 8.62039 2.04459 1.81342 -0.0492724 0.0180847 -0.0219752 0 -0.487317 0.00174045 
7 2 0 1 1.59575 8.5212 2.73152 1.6085 -0.0120412 0.0197344 -0.0486924 0.014175 0.0305178 8.14885e-06 
8 2 0 -1 1.5964 8.5213 2.7313 1.60861 -0.0114407 0.0215006 -0.0490798 0.0154135 0.0303661 8.47972e-06 
33 1 1 0 0 3.73482 7.77974 2.11098 -0.0560495 0.0341958 -0.0449685 0 -0.504778 0.00340436 
34 1 1 0 0 2.67216 6.90461 2.08983 -0.0616526 0.0411799 0.0400552 0 -0.505687 0.00381729 
35 2 0 1 1.61461 3.20075 7.34757 2.10428 -0.0425811 0.0374706 0.0014229 0.00189218 0.0369376 8.59098e-06 
36 2 0 -1 1.61435 3.20037 7.34728 2.10427 -0.0405856 0.0395029 0.00163761 0.00191888 0.0369997 8.56754e-06 
768 2 0 -1 1.58904 3.20204 1.95524 0.650291 0.0952344 -0.015386 0.0797122 0.0044578 0.0393313 4.1797e-05 
767 2 0 1 1.58931 3.20217 1.95522 0.649976 0.0936195 -0.0159499 0.0816634 -0.0024673 0.0392585 4.18429e-05 
90 1 1 0 0 1.43036 4.28614 0.588622 0.0159352 -0.00844043 -0.0182453 0 -0.49919 0.000353742 
483 2 0 1 1.58528 4.10323 2.08467 4.4097 -0.0188836 -0.0232075 0.00474071 -2.85947e-05 0.0460127 2.44686e-06 
186 1 1 0 0 5.3998 0.287285 2.1633 0.0645015 -0.00993699 -0.031993 0 -0.501156 0.00283975 
187 2 0 1 1.61579 5.89707 -0.015205 2.37749 0.0229788 -0.0255932 0.000857193 0.0045335 0.0231021 3.19755e-06 
188 2 0 -1 1.61597 5.89683 -0.015096 2.37738 0.0239637 -0.0255306 0.000413724 0.00426857 0.0230624 3.30613e-06 
189 1 1 0 0 4.74561 4.6098 2.20923 -0.0766767 0.0347694 0.00455295 0 -0.49863 0.00382144 
213 1 1 0 0 7.73236 3.67611 4.34799 -0.0479405 -0.0021198 -0.0299784 0 -0.497316 0.00172097 
191 2 0 1 1.595 5.3151 4.26907 2.02171 -0.0716974 0.0369531 0.02148 -0.0123697 0.0341799 1.88842e-05 
192 2 0 -1 1.595 5.31524 4.26903 2.02176 -0.072319 0.0365525 0.0211486 -0.0119239 0.0341746 1.8985e-05 
233 1 1 0 0 6.20917 7.82544 4.05302 -0.0186803 -0.0101764 0.0421863 0 -0.515697 0.00119992 
234 1 1 0 0 6.23132 6.46129 4.05921 -0.0368426 -0.0196811 -0.0768622 0 -0.501694 0.00411363 
235 2 0 1 1.60875 6.22582 7.18549 4.06237 -0.0269629 0.00240016 -0.0277751 0.00894683 0.0428413 4.17096e-06 
236 2 0 -1 1.60873 6.22578 7.18546 4.0623 -0.026886 0.000863207 -0.0279187 0.00638329 0.0428423 4.08928e-06 
216 2 0 -1 1.58727 7.65638 4.04395 4.91307 -0.0251453 -0.00847405 -0.0292564 0.00760425 0.0344711 4.27536e-06 
92 2 0 -1 1.61808 1.08803 4.85937 0.442768 0.00975956 -0.0244747 -0.00672965 0.000609958 0.0301504 1.9727e-06 
441 1 1 0 0 2.34654 9.97124 1.20906 0.0230238 -0.00662288 -0.0325981 0 -0.496995 0.000879756 
622 1 1 0 0 5.49813 10.0475 0.33896 -0.018158 0.0682099 -0.0454925 0 -0.488875 0.00379075 
215 2 0 1 1.58722 7.65632 4.04391 4.91311 -0.0253604 -0.00961749 -0.0312797 0.00771216 0.0344812 4.68938e-06 
566 1 1 0 0 1.92271 5.13209 4.81882 0.0168434 -0.00361865 0.00177549 0 -0.487745 0.000161237 
401 1 1 0 0 8.3973 6.42376 1.81351 0.044161 0.00468014 0.00384987 0 -0.500879 0.00106807 
481 1 1 0 0 4.52853 2.35835 3.95075 0.00117274 -0.0106092 0.0356385 0 -0.504069 0.00074399 
484 2 0 -1 1.58484 4.10304 2.08452 4.40987 -0.0205255 -0.0242929 0.00624089 0.00269138 0.0461398 2.81528e-06 
558 1 1 0 0 0.682852 1.04083 4.69026 0.0825423 0.0407735 0.0148378 0 -0.501165 0.00467448 
89 1 1 0 0 0.727917 5.4147 0.275042 -0.00274629 -0.00935279 -0.0082885 0 -0.496948 8.80059e-05 
565 1 1 0 0 1.16626 4.86316 3.71522 -0.0176737 -0.00787265 0.0268714 0 -0.518536 0.000589377 
560 2 0 -1 1.61397 0.771465 0.457957 4.44842 0.0586996 0.0392924 0.0068714 -0.0170867 0.0289416 1.4014e-05 
765 1 1 0 0 3.05539 1.92343 1.27489 0.0862304 -0.0361062 0.0826587 0 -0.508612 0.00837066 
18 1 1 0 0 2.74468 7.93321 4.94495 -0.0500014 -0.0316556 -0.0472687 0 -0.498653 0.00308369 
594 1 1 0 0 -0.151521 9.09083 1.08515 -0.0893854 -0.0122272 -0.0190444 0 -0.512706 0.00457024 
567 2 0 1 1.60594 1.4936 4.99039 4.20807 -0.00607313 0.00177004 -0.00710431 -0.00508122 0.0376917 2.92911e-07 
6 1 1 0 0 8.54158 3.35568 1.43219 0.0568321 0.0223934 -0.0589589 0 -0.500809 0.00387441 
621 1 1 0 0 5.57418 8.74728 -0.0238329 0.0328376 0.0792022 -0.0973006 0 -0.508173 0.00904094 
568 2 0 -1 1.60614 1.49351 4.99026 4.20788 -0.0050244 0.00257818 -0.00812439 -0.00574946 0.0376373 3.27143e-07 
623 2 0 1 1.59577 5.53077 9.36727 0.147457 0.00144106 0.0743733 -0.0698574 -0.00919349 0.0337591 2.7936e-05 
624 2 0 -1 1.59593 5.53077 9.36678 0.147379 0.00173914 0.0788337 -0.0701397 -0.00809447 0.0337194 2.9828e-05 
190 1 1 0 0 5.86497 3.96096 1.81294 -0.085172 0.00447846 0.0377731 0 -0.498559 0.00467732 
403 2 0 1 1.62587 8.20529 6.40719 1.17671 0.0125348 0.0121377 0.00973312 0.00119283 0.0307073 1.06723e-06 
402 1 1 0 0 8.00038 6.44541 0.517547 0.00135613 0.0374821 0.0113459 0 -0.496954 0.0008254 
559 2 0 1 1.61376 0.771564 0.457824 4.44832 0.0587909 0.0378971 0.00541039 -0.0164758 0.0289957 1.36666e-05 
404 2 0 -1 1.62597 8.20536 6.40715 1.17683 0.0119943 0.0120961 0.00894938 0.00588083 0.0306821 1.05646e-06 
482 1 1 0 0 3.71901 1.81277 4.85894 -0.0423415 -0.0338674 -0.0174475 0 -0.512989 0.00174394 
661 1 1 0 0 10.0035 8.51375 3.71815 -0.00742428 0.0578363 -0.0101562 0 -0.484453 0.00188321 
91 2 0 1 1.61815 1.08799 4.85949 0.442859 0.0109409 -0.0261056 -0.00626333 -0.00308862 0.0301358 2.26003e-06 
542 1 1 0 0 0.999147 6.36667 7.92083 0.088042 0.0209797 0.0189124 0 -0.504056 0.00459565 
687 2 0 1 1.54633 5.22186 8.6981 7.25392 -0.0198769 -0.0413797 -0.0479278 0.00200073 0.068302 1.17521e-05 
686 1 1 0 0 5.73496 8.87417 7.65519 -0.0368282 0.00259705 -0.0341746 0 -0.518316 0.00136053 
685 1 1 0 0 4.73764 8.53504 6.87976 -0.00178604 -0.0313124 -0.0640044 0 -0.527953 0.00273089 
37 1 1 0 0 7.294 6.78528 6.96005 0.016834 -0.0335316 -0.0302044 0 -0.521121 0.00124715 
38 1 1 0 0 8.40751 6.44456 7.60676 0.00882314 -0.0455693 -0.027143 0 -0.513529 0.00155415 
39 2 0 1 1.56799 7.82616 6.60202 7.26405 0.0162837 -0.035746 -0.0298274 0.00221775 0.0558199 6.49622e-06 
40 2 0 -1 1.56756 7.82605 6.60202 7.26402 0.0145475 -0.0362509 -0.0303254 0.00505874 0.0559293 6.57165e-06 
20 2 0 -1 1.59422 2.46474 8.13663 5.55474 -0.0361772 -0.0107616 -0.0355332 -0.00817568 0.0339701 7.29893e-06 
805 1 1 0 0 3.24212 8.76055 9.00673 0.0160351 -0.0358624 -0.0019303 0 -0.498789 0.000831574 
19 2 0 1 1.59448 2.46477 8.13673 5.55473 -0.0368244 -0.0101004 -0.03419 -0.0100511 0.0339058 7.20678e-06 
173 1 1 0 0 3.06479 4.69054 10.2294 0.0736985 0.0350869 0.0577215 0 -0.508252 0.00537248 
480 2 0 -1 1.61778 8.08165 9.9386 5.56692 -0.0116833 0.028439 -0.0137713 0.015738 0.0236491 3.52152e-06 
479 2 0 1 1.618 8.08174 9.93833 5.56696 -0.0145002 0.0330633 -0.0145299 0.016992 0.0235929 4.61587e-06 
201 1 1 0 0 4.50387 4.32875 6.04485 -0.0888181 -0.0250374 -0.0375349 0 -0.484078 0.00533488 
202 1 1 0 0 3.99618 5.52522 6.42293 -0.016731 -0.00721817 0.0476017 0 -0.502694 0.00139654 
203 2 0 1 1.59399 4.2438 4.98216 6.25816 -0.0318628 -0.0080695 0.0115281 0.019288 0.0285478 3.97904e-06 
204 2 0 -1 1.59399 4.24403 4.98179 6.25801 -0.0330391 -0.00654491 0.0125565 0.0213675 0.0285393 4.35831e-06 
543 2 0 1 1.60384 0.509722 6.11212 7.58452 0.0631166 0.049454 0.0162519 0.000718255 0.0335852 1.78489e-05 
789 1 1 0 0 7.64129 1.20961 9.73497 -0.00926818 -0.00835015 0.0315136 0 -0.511938 0.000617504 
728 2 0 -1 1.60687 9.47847 3.088 8.59416 0.0820055 -0.0191695 0.0322148 -0.000323744 0.0293218 2.16787e-05 
217 1 1 0 0 5.95504 4.69631 8.40838 0.00874904 -0.0381311 0.0156314 0 -0.495664 0.000954085 
214 1 1 0 0 7.65133 4.41133 5.47611 -0.0123006 -0.00815058 -0.019148 0 -0.498888 0.000314136 
17 1 1 0 0 2.17346 8.30295 6.11603 0.00387619 0.00318827 -0.037694 0 -0.50009 0.000777315 
409 1 1 0 0 1.62034 1.98742 6.7069 -0.0392698 -0.0433392 -0.018805 0 -0.498023 0.00202874 
410 1 1 0 0 1.93424 3.10265 7.34374 -0.028337 -0.0559741 -0.0210876 0 -0.500638 0.00235489 
411 2 0 1 1.57933 1.75887 2.54104 7.04137 -0.0229652 -0.0374458 -0.0271871 -0.000700801 0.0375435 7.11695e-06 
412 2 0 -1 1.57912 1.75872 2.54097 7.04127 -0.02323 -0.0360119 -0.0272225 -0.000201303 0.037606 6.87295e-06 
465 1 1 0 0 3.79779 1.77007 8.58035 -0.0707727 0.0309367 -0.0484257 0 -0.538414 0.00446754 
466 1 1 0 0 4.95984 2.0581 9.12059 -0.0732194 -0.0433771 0.00491133 0 -0.51377 0.00390627 
467 2 0 1 1.54688 4.32896 1.86228 8.8554 -0.0769018 -0.00559339 -0.0249768 0.00663863 0.0731748 1.7604e-05 
468 2 0 -1 1.54697 4.3287 1.86209 8.85526 -0.0792026 -0.00553585 -0.0260658 0.00351923 0.0731476 1.86448e-05 
808 2 0 -1 1.58882 2.61143 9.00491 9.1772 -0.00874748 -0.0336296 -0.00150902 0.000843371 0.0400964 3.22713e-06 
807 2 0 1 1.58908 2.61146 9.00488 9.17724 -0.00440369 -0.0337002 -0.00143132 0.00990312 0.0400404 3.28157e-06 
725 1 1 0 0 9.49345 2.88613 7.95015 0.0917919 -0.0141532 0.0226268 0 -0.493492 0.00491218 
220 2 0 -1 1.55801 5.89392 4.51713 9.11783 0.0309712 -0.0429378 0.0237306 0.0175507 0.0528419 9.59123e-06 
688 2 0 -1 1.54605 5.22176 8.69807 7.25382 -0.0202106 -0.0410065 -0.0478874 -0.00412382 0.06837 1.17215e-05 
727 2 0 1 1.60662 9.47856 3.08814 8.59449 0.0825404 -0.0187178 0.0299802 0.00150831 0.0293821 2.15015e-05 
219 2 0 1 1.55802 5.89392 4.51725 9.11761 0.0318835 -0.0419912 0.0261692 0.00437052 0.0528468 9.27645e-06 
581 1 1 0 0 6.43217 0.732507 6.75297 -0.0338743 0.0108339 0.0206073 0 -0.513227 0.000908194 
582 1 1 0 0 7.03363 1.79644 6.22402 -0.00744136 0.0174775 0.0382125 0 -0.512308 0.000978898 
583 2 0 1 1.5761 6.75509 1.2459 6.48345 -0.0186174 0.0172188 0.023249 0.00592956 0.0513802 3.22633e-06 
584 2 0 -1 1.5766 6.75528 1.24625 6.48339 -0.0185779 0.0177557 0.0232835 0.00379401 0.0512457 3.23524e-06 
726 1 1 0 0 9.45238 3.26703 9.24749 0.0807073 -0.0426787 0.0341427 0 -0.496271 0.00510721 
806 1 1 0 0 2.0457 9.26025 9.3763 -0.00330324 -0.0458435 -0.0180577 0 -0.508363 0.00131089 
544 2 0 -1 1.60348 0.509845 6.11218 7.58468 0.0602118 0.0488858 0.0139863 0.00380927 0.0336689 1.659e-05 
477 1 1 0 0 8.39943 9.32907 5.70924 -0.0186615 0.0334033 0.00198807 0 -0.487201 0.000789119 
218 1 1 0 0 5.80701 4.34562 9.66112 0.0499585 -0.0298797 0.0318349 0 -0.520355 0.00236637 
256 2 0 -1 1.6224 1.82109 0.668977 14.1561 0.0628973 -0.00721719 -0.0180932 -0.00708801 0.0272102 1.16609e-05 
154 1 1 0 0 6.63009 9.29984 10.1329 0.0342394 0.0171234 -0.103646 0 -0.493024 0.00656252 
637 1 1 0 0 8.94799 3.57706 13.4469 -0.0976122 -0.0363951 -0.0377454 0 -0.48795 0.00659977 
639 2 0 1 1.63382 8.85263 3.12246 12.8569 -0.086501 -0.0400538 -0.0228922 -0.000459398 0.0281875 2.56269e-05 
638 1 1 0 0 8.7181 2.7008 12.3959 -0.0828116 -0.0551156 -0.016037 0 -0.506866 0.0054576 
700 2 0 -1 1.57841 1.22068 1.78657 10.8328 -0.020862 -0.0283174 -0.0240401 0.00505291 0.0394598 4.89069e-06 
803 2 0 1 1.5923 6.36878 9.02019 13.7529 0.0351503 0.0420404 0.0453921 0.0210142 0.0535053 1.43843e-05 
255 2 0 1 1.62233 1.82123 0.668314 14.1562 0.0619756 -0.00682984 -0.0181531 -0.00715869 0.0272304 1.13472e-05 
156 2 0 -1 1.58905 6.19085 8.75306 10.2633 0.0581987 -0.0169684 -0.0886304 0.00295955 0.0395351 3.07624e-05 
155 2 0 1 1.58897 6.19084 8.75311 10.2632 0.0580599 -0.0169391 -0.0881513 0.00278703 0.0395619 3.04889e-05 
182 1 1 0 0 0.0111948 6.25404 12.4567 -0.127432 0.032694 -0.0054664 0 -0.49483 0.00931991 
571 2 0 1 1.58039 8.61183 5.99482 10.5713 0.0171372 -0.0455959 0.0313379 -0.00630917 0.0500575 9.02476e-06 
816 2 0 -1 1.60544 9.73866 8.93954 12.1891 0.0254394 0.00420608 0.0490468 0.00577244 0.0285617 8.25376e-06 
245 1 1 0 0 2.38639 7.79312 11.933 0.0401156 -0.0103977 0.0526838 0 -0.505459 0.0024152 
246 1 1 0 0 3.33863 8.25423 12.7496 0.0293492 -0.0171168 0.0439734 0 -0.525332 0.00165998 
247 2 0 1 1.58614 2.90382 8.0027 12.374 0.0306231 -0.0196554 0.045588 -0.00836522 0.0534919 9.21214e-06 
248 2 0 -1 1.58567 2.90409 8.00277 12.3742 0.033099 -0.0183373 0.0471312 -0.0115173 0.05361 1.00061e-05 
570 1 1 0 0 9.20035 6.02009 10.8167 0.00319143 -0.0256414 0.0684494 0 -0.514814 0.00287751 
697 1 1 0 0 1.26955 2.25723 10.3836 -0.03715 -0.03536 -0.00485704 0 -0.502394 0.00142669 
254 1 1 0 0 1.87513 -0.00161472 14.2412 0.0413619 -0.0192286 -0.0645983 0 -0.498719 0.00336158 
785 1 1 0 0 7.86722 5.99471 14.6372 -0.0447447 -0.0323964 -5.47976e-05 0 -0.503281 0.00164041 
273 1 1 0 0 4.76747 1.3095 12.4509 -0.00122862 -0.00917883 0.0586824 0 -0.486792 0.00189723 
274 1 1 0 0 4.72425 2.64786 12.3887 0.0137724 -0.00395098 -0.0202 0 -0.50996 0.000329696 
275 2 0 1 1.59581 4.75814 2.03892 12.4397 0.00592434 -0.00104228 0.0180885 -0.00204605 0.034991 9.77296e-07 
276 2 0 -1 1.59547 4.75817 2.03857 12.4397 0.00565031 -0.00061633 0.018348 -0.000954589 0.0350778 9.85611e-07 
640 2 0 -1 1.63398 8.85258 3.12213 12.8565 -0.0864913 -0.0398545 -0.0212858 -0.00147579 0.028151 2.53947e-05 
699 2 0 1 1.57865 1.2208 1.78682 10.8326 -0.0206726 -0.0286419 -0.0242817 0.00298052 0.0394012 4.91684e-06 
787 2 0 1 1.61847 8.50131 6.15583 14.7837 -0.0453777 -0.00544123 0.0297451 -0.00277176 0.0290639 7.94403e-06 
572 2 0 -1 1.58061 8.61223 5.99484 10.5714 0.0172955 -0.0448637 0.0310309 -0.0134971 0.0499991 9.09634e-06 
813 1 1 0 0 9.27403 8.41932 12.0142 0.0211741 -0.0133066 0.0663426 0 -0.49143 0.00270214 
790 1 1 0 0 7.05025 0.690532 10.8311 -0.0430225 -0.0349331 0.0168267 0 -0.506491 0.00180316 
792 2 0 -1 1.58994 7.35252 0.96184 10.2811 -0.0429063 -0.0204766 0.0164226 0.0142039 0.0439806 7.14939e-06 
815 2 0 1 1.60521 9.73848 8.93932 12.1891 0.0253312 0.00394476 0.048908 0.00839264 0.0286139 8.2714e-06 
253 1 1 0 0 1.80985 1.35967 14.0409 0.0576139 0.00128033 0.0234117 0 -0.493934 0.00207985 
802 1 1 0 0 6.4587 8.99099 13.094 0.0359441 0.038191 0.0351818 0 -0.520439 0.00214392 
801 1 1 0 0 6.31869 9.02218 14.4259 0.0603616 0.0707833 0.0546723 0 -0.51294 0.00625865 
421 1 1 0 0 2.04761 3.93282 12.8802 0.00471483 -0.0144779 0.0758433 0 -0.510559 0.00321674 
422 1 1 0 0 1.78758 4.4492 14.0949 0.0740053 0.0702042 0.0553307 0 -0.513194 0.00723916 
423 2 0 1 1.57093 1.90736 4.17076 13.4889 0.0387549 0.0126428 0.0454162 0.0117212 0.0519819 1.02056e-05 
424 2 0 -1 1.57021 1.90739 4.17076 13.4888 0.0390345 0.0112504 0.0435556 0.009959 0.0521722 9.65711e-06 
513 1 1 0 0 4.95773 6.13439 12.7855 0.00874017 -0.00536321 -0.0103823 0 -0.486221 0.00011447 
514 1 1 0 0 5.98452 5.281 12.4581 -0.00101574 -0.00225515 -0.0168117 0 -0.514537 0.000155219 
515 2 0 1 1.61575 5.52623 5.63862 12.5956 0.0165103 -0.00765753 -0.0135147 -0.0144237 0.033104 1.78626e-06 
516 2 0 -1 1.61585 5.52646 5.63844 12.5955 0.0178953 -0.00950602 -0.0136188 -0.0187574 0.0330689 2.29302e-06 
698 1 1 0 0 1.18711 1.31586 11.3234 -0.00106347 -0.041302 -0.0106819 0 -0.502564 0.000978931 
153 1 1 0 0 5.79137 8.26767 10.3328 0.0971555 -0.021962 -0.082161 0 -0.511163 0.00896205 
804 2 0 -1 1.59253 6.36868 9.02029 13.7534 0.035477 0.0422132 0.0419737 0.0155741 0.0534356 1.32902e-05 
569 1 1 0 0 7.95785 5.93283 10.3184 0.0303668 -0.0730288 0.00341244 0 -0.509277 0.00336884 
612 2 0 -1 1.57636 0.203169 10.0402 11.4743 -0.0539415 -0.0125855 0.050423 -0.000844763 0.039357 1.49616e-05 
786 1 1 0 0 9.17578 6.3662 14.8891 -0.0737121 0.0142122 0.0766988 0 -0.491996 0.00619162 
788 2 0 -1 1.61811 8.50143 6.1558 14.7836 -0.0424736 -0.00465887 0.0301346 -0.00130354 0.0291512 7.29291e-06 
611 2 0 1 1.57675 0.203044 10.0401 11.4743 -0.0552311 -0.0148552 0.0481844 0.00551168 0.0392527 1.49738e-05 
781 1 1 0 0 2.26863 9.73866 15.2558 0.0104477 -0.0501559 0.104624 0 -0.494755 0.00729513 
791 2 0 1 1.58963 7.35267 0.961946 10.281 -0.0419419 -0.020599 0.0158621 0.0103171 0.0440602 6.70576e-06 
365 1 1 0 0 5.31425 3.28773 15.0764 0.094205 -0.0512282 -0.00854929 0 -0.489691 0.00622056 
41 1 1 0 0 9.53606 9.73978 14.8879 -0.0532012 0.0460949 -0.0343671 0 -0.495629 0.00329854 
175 2 0 1 1.59324 2.5078 4.95088 10.4172 0.0510362 0.079917 0.0200761 0.0148074 0.0350804 2.54882e-05 
176 2 0 -1 1.59311 2.50796 4.95082 10.4171 0.0509323 0.0804032 0.0186498 0.0134656 0.0350984 2.54446e-05 
174 1 1 0 0 1.92193 5.24118 10.704 0.0558357 0.116882 -0.0246346 0 -0.487808 0.00934585 
646 1 1 0 0 6.06643 8.59019 17.0106 0.10738 -0.0124728 0.0672104 0 -0.503414 0.00871014 
817 1 1 0 0 8.57578 5.08865 17.4469 -0.0538615 0.0194779 -0.114641 0 -0.484623 0.00882819 
350 1 1 0 0 1.14788 4.42184 16.7681 0.000532501 -0.0437764 -0.0290396 0 -0.492 0.00148362 
351 2 0 1 1.61091 0.543334 4.6294 16.4663 0.0236959 -0.0224249 -0.0226537 0.00229454 0.0261822 4.21699e-06 
730 1 1 0 0 10.1785 1.79355 19.0487 0.0691334 -0.0552956 -0.00587143 0 -0.504032 0.00423135 
84 2 0 -1 1.60866 3.70379 6.39852 15.5162 0.0251145 -0.0799013 -0.0187052 -0.00529046 0.0359567 1.96938e-05 
820 2 0 -1 1.63346 8.608 4.53073 17.9034 -0.0656579 0.025248 -0.0779198 0.0112908 0.0199235 2.96388e-05 
819 2 0 1 1.63332 8.60795 4.53064 17.9035 -0.064952 0.0252212 -0.0780589 0.011982 0.019963 2.94794e-05 
818 1 1 0 0 8.64685 4.00272 18.302 -0.0901844 0.0535951 -0.0329727 0 -0.492834 0.00650055 
42 1 1 0 0 9.60792 9.93933 16.2323 -0.0334893 0.0414644 -0.0231294 0 -0.497962 0.00181467 
763 2 0 1 1.62568 6.25502 1.66324 19.0228 -0.0156564 0.0706743 -0.0372614 -0.00606605 0.0242508 1.77477e-05 
370 1 1 0 0 9.02932 1.08504 15.7512 -0.0865272 0.0261289 0.00535498 0 -0.527513 0.00440705 
369 1 1 0 0 7.7803 1.11548 15.2357 -0.0917086 0.0445056 0.0286426 0 -0.486394 0.00602683 
645 1 1 0 0 7.33161 8.20742 16.84 0.0879508 -0.0413606 0.0447689 0 -0.482569 0.00615514 
722 1 1 0 0 4.8592 0.268908 16.0309 -0.0400421 0.0231243 0.0023211 0 -0.511114 0.00115224 
352 2 0 -1 1.61084 0.543554 4.62934 16.4663 0.0240842 -0.0221132 -0.023039 0.00459532 0.0261839 4.30809e-06 
371 2 0 1 1.60202 8.50049 1.0915 15.5527 -0.0824689 0.0358065 0.0138628 -0.00676649 0.0443987 2.21573e-05 
366 1 1 0 0 6.16821 3.48362 16.122 0.121081 -0.0148896 -0.0497087 0 -0.497022 0.00932831 
367 2 0 1 1.60948 5.73976 3.404 15.6158 0.111659 -0.0177491 -0.0235345 -0.00874428 0.0249401 3.57143e-05 
368 2 0 -1 1.60901 5.73934 3.40402 15.6156 0.112701 -0.0180614 -0.0208246 -0.00691821 0.0250445 3.59896e-05 
43 2 0 1 1.59011 9.57123 9.85061 15.554 -0.0415932 0.0469643 -0.00695587 0.0162377 0.031468 1.11504e-05 
840 2 0 -1 1.545 0.223354 1.29753 18.8376 0.0493251 0.00080898 0.0295686 -0.00150523 0.0571902 8.82488e-06 
766 1 1 0 0 3.4083 1.9748 20.1187 0.110993 0.0330805 0.0905349 0 -0.495675 0.0116167 
372 2 0 -1 1.60182 8.50016 1.0915 15.5525 -0.0798678 0.0357922 0.0156904 -0.00533861 0.0444317 2.11381e-05 
415 2 0 1 1.66176 5.06502 5.63719 18.9679 0.0302851 -0.00740338 -0.0253276 0.00264571 0.0191909 4.31623e-06 
648 2 0 -1 1.58291 6.62585 8.40671 16.9404 0.0793709 -0.0096516 0.0629278 -0.0121368 0.032209 2.78996e-05 
647 2 0 1 1.58349 6.62575 8.40686 16.9403 0.0790854 -0.0105438 0.062523 -0.0108033 0.0320508 2.76304e-05 
589 1 1 0 0 3.43887 2.72769 17.1747 0.063069 0.0119545 0.0401599 0 -0.506835 0.00308202 
590 1 1 0 0 2.62164 1.70104 17.4689 0.0165643 0.0257593 0.0416992 0 -0.493197 0.00143889 
591 2 0 1 1.58359 3.05258 2.24128 17.3296 0.0512232 0.0244672 0.0473447 0.00962723 0.0367774 1.47547e-05 
592 2 0 -1 1.58371 3.05219 2.24057 17.3299 0.0506047 0.0215331 0.047768 0.0132537 0.0367374 1.45001e-05 
617 1 1 0 0 1.54241 8.57782 18.4367 -0.0653614 0.00337207 0.0531953 0 -0.482897 0.00382373 
618 1 1 0 0 2.52804 7.75649 18.9602 -0.0671291 -0.0356858 -0.0300524 0 -0.506072 0.00359243 
619 2 0 1 1.63632 2.06104 8.13849 18.711 -0.0690532 -0.0139063 0.00564255 -0.0128179 0.0252133 1.36436e-05 
620 2 0 -1 1.63633 2.06093 8.13862 18.7109 -0.0660279 -0.0157685 0.00780296 -0.0121936 0.0252047 1.27475e-05 
82 1 1 0 0 3.20514 6.86343 15.5043 0.0313557 -0.0903075 -0.0193744 0 -0.504012 0.00511427 
416 2 0 -1 1.66156 5.06501 5.63703 18.968 0.0308536 -0.00660977 -0.0264044 0.00437865 0.0192327 4.55215e-06 
414 1 1 0 0 5.18463 5.15659 19.5241 0.00347979 -0.0195069 -0.0325017 0 -0.485214 0.000778907 
83 2 0 1 1.60872 3.70411 6.39821 15.5162 0.0281262 -0.0815474 -0.0192748 -0.00298204 0.0359496 2.08495e-05 
81 1 1 0 0 4.19906 5.94008 15.4852 0.0258404 -0.0891586 -0.024235 0 -0.501953 0.0049478 
838 1 1 0 0 0.739708 1.12068 19.1581 0.0310376 -0.0510603 0.068099 0 -0.512284 0.00441221 
44 2 0 -1 1.5898 9.57118 9.85073 15.5538 -0.0413797 0.0478107 -0.00409531 0.00726772 0.0315485 1.08111e-05 
70 1 1 0 0 9.68963 8.62445 19.6367 -0.0245971 0.0956169 0.0403817 0 -0.506694 0.00611643 
839 2 0 1 1.54521 0.223583 1.2976 18.8379 0.0505914 -8.90548e-05 0.028871 0.0080409 0.057124 9.17658e-06 
764 2 0 -1 1.62582 6.25495 1.66318 19.0226 -0.0161742 0.0699991 -0.0352628 0.00264747 0.0242125 1.70923e-05 
761 1 1 0 0 6.05285 1.59758 18.3447 -0.018932 0.046491 -0.0397324 0 -0.489359 0.00220316 
762 1 1 0 0 6.4466 1.68312 19.6543 -0.0371008 0.0852251 -0.0326488 0 -0.497072 0.00521734 
413 1 1 0 0 4.96551 6.05665 18.4678 0.0684794 0.00935807 -0.0177996 0 -0.498228 0.0027382 
783 2 0 1 1.60001 2.89545 9.88768 15.4193 -0.00532253 -0.0495699 0.105253 -0.000785021 0.0260837 3.61682e-05 
784 2 0 -1 1.60039 2.89543 9.88771 15.4194 -0.00602869 -0.049171 0.105027 -0.00206182 0.0259895 3.5965e-05 
747 2 0 1 1.55414 9.72793 19.8401 1.701 -0.0279525 -0.0362027 -0.0262859 0.00678269 0.0447118 7.51247e-06 
628 2 0 -1 1.58112 3.85456 18.3385 4.72241 0.0480117 -0.0438605 0.0445345 0.00978825 0.0425606 1.6756e-05 
627 2 0 1 1.58078 3.85461 18.3384 4.72249 0.0482959 -0.0446884 0.0454457 0.00817725 0.0426587 1.71852e-05 
495 2 0 1 1.61986 8.5586 10.5715 1.49568 0.0342732 -0.0334634 0.0171336 0.00421007 0.0319777 6.93619e-06 
748 2 0 -1 1.55491 9.728 19.8401 1.70079 -0.0266254 -0.0351759 -0.0285528 0.0140968 0.0445112 7.76081e-06 
496 2 0 -1 1.62027 8.55848 10.5715 1.49543 0.0342767 -0.0329001 0.0189378 -0.00015944 0.0318755 6.9753e-06 
321 1 1 0 0 4.55476 11.071 3.42656 -0.00867119 0.0436833 -0.12912 0 -0.496746 0.0100282 
322 1 1 0 0 5.682 10.5078 3.90392 -0.0333036 -0.00606277 -0.139573 0 -0.504421 0.0110879 
323 2 0 1 1.61089 5.12918 10.7541 3.67533 -0.00217481 0.00755384 -0.109489 -0.00288137 0.0362091 3.21462e-05 
324 2 0 -1 1.61094 5.12947 10.754 3.67538 -0.00399673 0.00906209 -0.109738 -0.00267122 0.0361985 3.23862e-05 
385 1 1 0 0 4.17621 16.7054 1.89797 -0.113513 0.0179752 -0.0241891 0 -0.495687 0.00741472 
386 1 1 0 0 3.96474 15.3331 2.08125 0.00400514 0.0177057 -0.0555773 0 -0.485229 0.00183755 
387 2 0 1 1.63368 4.09952 16.0575 2.00988 -0.0404756 0.024176 -0.0368814 -0.0103285 0.0225345 9.76714e-06 
388 2 0 -1 1.63351 4.09953 16.0574 2.00989 -0.0409184 0.0232965 -0.0372205 -0.00718967 0.0225771 9.70895e-06 
389 1 1 0 0 5.518 13.1007 0.896162 0.0215878 -0.0347409 -0.0782625 0 -0.493646 0.00419182 
390 1 1 0 0 4.2257 12.6036 0.930701 0.00281744 0.0374618 0.0362814 0 -0.493951 0.00146626 
391 2 0 1 1.61151 4.86085 12.8385 0.899037 0.0119936 0.00914026 -0.0156629 -0.00955956 0.026802 1.44323e-06 
392 2 0 -1 1.6115 4.8607 12.8384 0.899052 0.00932413 0.00832628 -0.0156963 -0.00709953 0.0267987 1.17441e-06 
405 1 1 0 0 8.09543 18.2868 4.09214 0.015731 -0.0313073 -0.0384753 0 -0.486683 0.00145567 
696 2 0 -1 1.63208 0.539072 15.7752 0.967257 0.0455308 0.0711536 0.063619 -0.0129492 0.0237382 3.01547e-05 
407 2 0 1 1.58014 7.96268 18.7921 4.50195 0.0234566 0.000634416 -0.0352465 0.00214252 0.0218397 4.78989e-06 
408 2 0 -1 1.5805 7.96268 18.7923 4.50186 0.0233819 0.00286987 -0.0328357 -0.00567147 0.0217443 4.41896e-06 
433 1 1 0 0 7.49237 12.9292 3.147 -0.0161156 0.0416043 -0.0659615 0 -0.537184 0.00340891 
434 1 1 0 0 7.59329 14.2091 3.48219 0.0310637 0.0226486 0.0234191 0 -0.497546 0.00108928 
435 2 0 1 1.56643 7.54114 13.4915 3.29518 -0.00109665 0.0253277 -0.031388 -0.00906699 0.0596929 4.50509e-06 
436 2 0 -1 1.56622 7.54115 13.4913 3.29505 -0.00214198 0.0292853 -0.0303154 -0.00372923 0.0597541 4.77737e-06 
99 2 0 1 1.55731 0.706927 17.1581 4.77559 -0.0603723 -0.0919869 -0.0492203 0.00360403 0.0314879 3.87666e-05 
442 1 1 0 0 1.98885 11.146 1.78773 -0.0159727 -0.0249482 0.0268355 0 -0.503163 0.000858837 
443 2 0 1 1.58337 2.17934 10.6092 1.49103 0.00233456 -0.00969402 -0.0115029 0.0124212 0.0380083 9.26467e-07 
444 2 0 -1 1.58296 2.17943 10.6091 1.49107 0.0025885 -0.00951651 -0.0115077 0.019678 0.0381175 1.38684e-06 
453 1 1 0 0 7.0739 16.1859 1.78951 0.0881717 -0.0470294 -0.00843078 0 -0.485791 0.00540622 
454 1 1 0 0 8.30372 16.3172 1.21182 0.0822367 -0.00966636 0.0124227 0 -0.495948 0.00376859 
455 2 0 1 1.61415 7.70359 16.2994 1.49309 0.0759054 -0.0213493 0.0111448 -0.0110672 0.0248332 1.71544e-05 
456 2 0 -1 1.61452 7.70376 16.2994 1.49309 0.0764547 -0.0217498 0.0100202 -0.00720472 0.0247395 1.7219e-05 
607 2 0 1 1.57561 10.2279 13.706 0.807719 0.0740417 -0.00142966 0.00264698 0.00650218 0.0568571 1.47265e-05 
485 1 1 0 0 1.53532 13.9598 3.06819 0.00726069 0.0840643 0.031861 0 -0.500422 0.0043728 
486 1 1 0 0 2.09025 13.0987 3.98478 -0.0619477 0.0698033 0.0305223 0 -0.481318 0.00518288 
487 2 0 1 1.61546 1.80778 13.5326 3.44892 -0.0219992 0.066516 0.0336021 -0.00790034 0.0240515 1.62232e-05 
488 2 0 -1 1.61583 1.80758 13.5328 3.44885 -0.0219329 0.0670481 0.0336586 -0.00638158 0.0239608 1.63717e-05 
489 1 1 0 0 1.32742 19.3689 1.19345 0.0353573 -0.0484855 0.0330039 0 -0.480961 0.00252125 
490 1 1 0 0 2.61148 18.9029 1.11942 0.0227381 -0.0389012 0.0900349 0 -0.476796 0.00544896 
491 2 0 1 1.62423 1.95096 19.09 1.16438 0.0237389 -0.0407694 0.0561793 -0.0149066 0.0113857 1.47945e-05 
492 2 0 -1 1.62428 1.95075 19.09 1.16442 0.0209638 -0.0398243 0.0568201 -0.0186885 0.0113712 1.47078e-05 
608 2 0 -1 1.57545 10.2279 13.7059 0.807768 0.0724212 -0.00182278 0.0027795 -0.00292127 0.0569053 1.40315e-05 
605 1 1 0 0 9.80343 13.4522 1.23046 0.0905792 0.0115358 0.00574515 0 -0.524835 0.00449968 
100 2 0 -1 1.55692 0.706916 17.1582 4.77571 -0.062735 -0.0912422 -0.047631 6.78459e-05 0.0316024 3.8742e-05 
98 1 1 0 0 1.01911 17.1234 4.24651 -0.0480054 -0.0653916 -0.0440039 0 -0.4997 0.0045783 
745 1 1 0 0 9.87794 19.9313 0.991625 -0.0161582 -0.0488049 -0.0186313 0 -0.489085 0.00160735 
625 1 1 0 0 3.58106 17.8052 5.047 0.0356671 -0.0309635 0.03727 0 -0.495753 0.0019459 
694 1 1 0 0 0.691816 16.4515 1.05843 0.020903 0.100604 0.0325888 0 -0.492172 0.00624642 
626 1 1 0 0 4.14075 18.8113 4.39718 0.0976078 -0.0502814 0.0363403 0 -0.513232 0.00719037 
695 2 0 1 1.63224 0.539097 15.7754 0.967409 0.046078 0.0728159 0.0638206 -0.0130656 0.023699 3.10011e-05 
185 1 1 0 0 6.4797 19.7964 2.71669 0.0136988 -0.0446275 0.0182588 0 -0.475921 0.00135068 
746 1 1 0 0 9.63186 19.7217 2.26667 -0.0161555 -0.0179992 -0.0155599 0 -0.513786 0.000444601 
494 1 1 0 0 8.94203 10.5852 1.95191 0.0591132 -0.074816 0.0478843 0 -0.517461 0.00611988 
693 1 1 0 0 0.368395 15.1121 0.898756 0.116625 0.102467 0.0707786 0 -0.492665 0.0156485 
557 1 1 0 0 0.883993 19.9664 4.17407 0.0398147 0.080504 -0.0194494 0 -0.491155 0.0045393 
493 1 1 0 0 8.06678 10.5649 0.886555 0.0694328 0.00575623 0.0422275 0 -0.478429 0.00356785 
325 1 1 0 0 5.69352 15.7974 4.68136 -0.0224543 0.00466333 0.00329972 0 -0.488462 0.000288574 
49 1 1 0 0 2.3626 11.0195 5.87771 0.0426294 -0.0573918 0.0253684 0 -0.500889 0.00309342 
50 1 1 0 0 2.68716 12.2118 6.43912 -0.0375024 -0.0170012 0.00436465 0 -0.500035 0.000921643 
51 2 0 1 1.59486 2.50265 11.6278 6.15331 0.00752334 -0.0260397 0.0168219 -0.000245807 0.0356278 2.71359e-06 
52 2 0 -1 1.59502 2.50251 11.6275 6.15305 0.00820799 -0.0260537 0.0162158 0.00814222 0.0355891 2.82332e-06 
65 1 1 0 0 8.97791 13.3572 5.93207 -0.000548311 0.0306402 -0.00662194 0 -0.510806 0.000528401 
67 2 0 1 1.564 8.84803 13.4205 6.55569 -0.000189764 0.0440038 -0.013179 0.0115152 0.0450486 5.89149e-06 
68 2 0 -1 1.56379 8.84804 13.4204 6.5556 -0.00102875 0.0449752 -0.0119354 0.0122599 0.0451138 6.07682e-06 
676 2 0 -1 1.59905 4.15011 12.2993 9.36116 -0.02046 0.0700613 -0.0238767 0.0130165 0.0277853 1.60636e-05 
347 2 0 1 1.56232 9.80218 20.0421 7.83586 -0.0387471 -0.0127969 0.0308722 0.00601679 0.0554866 7.05361e-06 
262 1 1 0 0 1.67119 19.3227 8.13319 -0.012734 -0.0153966 -0.00737879 0 -0.499667 0.000243864 
127 2 0 1 1.55397 9.71731 16.8897 7.15631 -0.00643302 -0.0196686 -0.0627982 0.0022451 0.0421744 1.16673e-05 
836 2 0 -1 1.62595 6.30768 18.2902 7.87012 0.0342423 -0.00375774 0.0127868 0.00460531 0.0206413 3.64252e-06 
835 2 0 1 1.62595 6.3075 18.2904 7.87067 0.0330212 -0.00210379 0.0146807 0.00194597 0.0206391 3.50153e-06 
834 1 1 0 0 6.12272 18.7327 8.39199 -0.0179135 -0.00631782 0.0180302 0 -0.488486 0.000368705 
66 1 1 0 0 8.66329 13.4727 7.2142 0.00491305 0.0335864 0.0123773 0 -0.498007 0.000701711 
520 2 0 -1 1.58607 6.71536 14.6889 9.16439 0.00438058 -0.0447819 -0.0211315 -0.00562295 0.030247 6.65237e-06 
406 1 1 0 0 7.7474 19.2743 4.9509 0.0384122 0.00713 -0.0775659 0 -0.483823 0.00405465 
257 1 1 0 0 2.11451 15.6654 6.1324 0.0307707 -0.0568395 -0.0240336 0 -0.483502 0.00255616 
258 1 1 0 0 3.23962 15.0693 6.52099 0.0485819 -0.0414316 -0.0607215 0 -0.518913 0.00417349 
259 2 0 1 1.58561 2.73699 15.3448 6.35379 0.032951 -0.0352473 -0.0379926 -0.0065897 0.0395338 1.01435e-05 
260 2 0 -1 1.58579 2.737 15.3447 6.35375 0.0326671 -0.035394 -0.0376525 -0.00638078 0.0394842 1.00474e-05 
261 1 1 0 0 2.18176 18.7786 7.02589 -0.0917649 0.00569626 -0.0424949 0 -0.497143 0.00551479 
348 2 0 -1 1.56226 9.80221 20.0421 7.83596 -0.041311 -0.0173334 0.0290397 0.00332867 0.055508 7.62242e-06 
263 2 0 1 1.59424 1.94672 19.0259 7.59917 -0.0640074 0.0107335 -0.0100723 -0.00252003 0.0334162 1.15146e-05 
264 2 0 -1 1.5941 1.94666 19.0259 7.59945 -0.0645467 0.0102368 -0.012183 0.00442153 0.0334503 1.18234e-05 
309 1 1 0 0 5.9359 13.5734 6.25416 -0.0220919 0.0382229 -0.0645071 0 -0.517035 0.00328455 
310 1 1 0 0 5.23646 12.5654 6.73656 0.0256616 -0.00702767 -0.0857923 0 -0.526042 0.0043371 
311 2 0 1 1.55002 5.56566 13.0607 6.50769 0.00109208 -0.00448988 -0.0700677 -0.00474813 0.06529 1.31928e-05 
312 2 0 -1 1.55067 5.56565 13.0608 6.50778 0.00115678 -0.00388759 -0.0713609 -0.0043648 0.0650982 1.36604e-05 