ITEM: TIMESTEP
30000
ITEM: NUMBER OF ATOMS
864
ITEM: BOX BOUNDS pp pp pp
0.0000000000000000e+00 2.0147801999999999e+01
0.0000000000000000e+00 2.0147801999999999e+01
0.0000000000000000e+00 2.0147801999999999e+01
ITEM: ATOMS id type q c_1a[1] c_1a[2] x y z vx vy vz c_1a[3] c_peatom c_keatom 
5 1 1 0 0 7.88113 2.97812 1.80294 -0.0212637 0.036972 0.0514652 0 -0.507328 0.00240165 
7 2 0 1 1.58569 7.73643 3.43602 1.30396 -0.0326958 0.0595831 0.0729128 0.00737095 0.0524356 2.66008e-05 
8 2 0 -1 1.58569 7.73633 3.43619 1.30381 -0.0326115 0.0611782 0.0721205 -0.00147567 0.0524404 2.66891e-05 
33 1 1 0 0 3.55954 7.70504 1.03286 -0.0963619 0.0434818 -0.0125982 0 -0.475269 0.00609315 
34 1 1 0 0 2.59501 6.90003 1.56713 -0.109975 0.0836436 0.0334538 0 -0.50052 0.0108639 
35 2 0 1 1.59398 3.04367 7.26239 1.35709 -0.0960909 0.0618292 0.00722113 0.0029873 0.0251293 3.49706e-05 
36 2 0 -1 1.59385 3.04322 7.26214 1.35732 -0.0958061 0.0628023 0.00738316 0.00295177 0.0251537 3.51542e-05 
768 2 0 -1 1.62967 3.45774 1.9206 0.229087 -0.0194717 -0.0345975 -0.00310019 -0.00627885 0.0200426 4.30712e-06 
767 2 0 1 1.62977 3.45778 1.92067 0.228973 -0.0178065 -0.0341674 -0.00322019 -0.00217872 0.0200245 3.99542e-06 
523 2 0 1 1.56023 9.98178 2.04515 4.98564 0.00216942 0.034894 0.0498772 -0.0034763 0.0432829 9.91671e-06 
747 2 0 1 1.56985 9.50259 0.309293 1.9438 -0.0273958 -0.000505307 -0.0133323 0.00804838 0.0534996 2.60541e-06 
186 1 1 0 0 5.56601 1.64676 2.84578 -0.00637124 -0.0369323 0.0119246 0 -0.483913 0.000831479 
557 1 1 0 0 1.38894 -0.122138 4.20607 0.00245832 -0.0401451 0.0243838 0 -0.488501 0.0011892 
482 1 1 0 0 3.36884 2.33895 5.00374 -0.0158441 0.0257305 0.0437623 0 -0.506207 0.00152032 
189 1 1 0 0 4.07783 5.03042 2.81278 0.0625423 -0.0995731 -0.0437556 0 -0.487511 0.00846156 
213 1 1 0 0 8.18122 4.06854 4.2787 0.0223298 0.0292963 -0.00308162 0 -0.521928 0.000734507 
191 2 0 1 1.60156 4.55958 4.56055 3.00304 0.0395206 -0.0962809 -0.0537229 0.0109153 0.0260884 3.68165e-05 
192 2 0 -1 1.60144 4.55949 4.56062 3.00295 0.0406064 -0.0992635 -0.0528908 0.00200913 0.026118 3.81369e-05 
233 1 1 0 0 6.59227 7.84554 3.92849 0.00889101 -0.0511148 -0.014207 0 -0.520004 0.00155547 
234 1 1 0 0 6.01935 6.71132 3.52312 -0.0600006 -0.0129471 0.0161369 0 -0.508865 0.00216532 
235 2 0 1 1.57959 6.33331 7.32397 3.71501 -0.0286169 -0.0515408 -0.00989788 0.00037801 0.0546116 9.52836e-06 
236 2 0 -1 1.57944 6.33334 7.32387 3.715 -0.0298606 -0.0525781 -0.0103637 0.00495479 0.0546622 1.00843e-05 
216 2 0 -1 1.56328 7.84126 4.40647 4.71568 0.0234796 0.0377552 -0.0072634 -0.00591211 0.0634142 5.48144e-06 
92 2 0 -1 1.61791 0.910849 4.59023 0.117709 -0.0151764 -0.00142109 0.0268589 0.00178248 0.0262295 2.54945e-06 
89 1 1 0 0 0.410532 4.95195 0.340911 0.000849451 0.00983681 0.0603878 0 -0.496977 0.00201269 
746 1 1 0 0 9.36067 0.372138 2.54731 -0.0100295 0.0116581 -0.0239215 0 -0.520203 0.00043474 
215 2 0 1 1.56374 7.84132 4.40655 4.71574 0.023718 0.0364071 -0.00893905 -0.00568708 0.0632901 5.31203e-06 
566 1 1 0 0 1.28828 5.04998 4.78915 0.0526365 -0.0319138 0.0422762 0 -0.49936 0.00299759 
401 1 1 0 0 8.59887 6.87042 1.36492 -0.0553295 0.00040955 0.0983819 0 -0.500433 0.0068487 
524 2 0 -1 1.56016 9.98158 2.04493 4.98559 0.00253504 0.0352054 0.0499601 -0.00374769 0.0433009 1.00055e-05 
594 1 1 0 0 0.226105 7.97443 1.74942 0.0229237 0.00237933 0.0720964 0 -0.479981 0.00307966 
558 1 1 0 0 0.436758 0.848004 4.16613 -0.00722689 -0.0199963 -0.0185117 0 -0.51213 0.000427226 
185 1 1 0 0 6.34762 0.535599 2.87244 0.0195544 -0.0174424 0.0412618 0 -0.493735 0.00128429 
565 1 1 0 0 1.04569 4.11052 3.83879 0.0744795 0.0380909 -0.0153907 0 -0.511782 0.00388918 
560 2 0 -1 1.59958 0.870706 0.405632 4.16879 -0.0109391 -0.0159355 0.00253152 0.0154703 0.0355457 1.49189e-06 
765 1 1 0 0 3.08624 1.46411 0.550962 -0.0442657 -0.0304575 -0.00840711 0 -0.492706 0.00158997 
18 1 1 0 0 2.47117 7.96042 4.41572 -0.0161409 0.0431203 0.0164212 0 -0.491496 0.0012845 
91 2 0 1 1.61885 0.911011 4.59004 0.117673 -0.0174405 0.000116832 0.0274033 -0.000864684 0.0259986 2.81492e-06 
567 2 0 1 1.60442 1.17162 4.55559 4.28507 0.0652337 -0.00337954 0.0098409 -0.0089661 0.0387094 1.17963e-05 
6 1 1 0 0 7.60743 3.86051 0.843264 -0.0380979 0.0812051 0.0887912 0 -0.522011 0.008563 
404 2 0 -1 1.62398 8.44096 6.89217 0.714824 -0.0148922 0.0713957 0.0687714 0.012902 0.0295804 2.71269e-05 
568 2 0 -1 1.60437 1.17166 4.55547 4.28498 0.064204 -0.00594178 0.00785142 -0.00459801 0.0387242 1.12922e-05 
559 2 0 1 1.59918 0.87079 0.405599 4.16886 -0.0111847 -0.0169338 0.00308439 0.0185545 0.0356574 1.81201e-06 
748 2 0 -1 1.56996 9.50264 0.309299 1.94346 -0.0277111 -0.00103024 -0.011547 0.00905994 0.0534687 2.57008e-06 
190 1 1 0 0 5.01035 4.14117 3.21497 0.0508767 -0.120838 -0.0567616 0 -0.494552 0.0109726 
403 2 0 1 1.62367 8.44088 6.89206 0.714565 -0.0160367 0.0713053 0.066686 0.0152955 0.0296586 2.65686e-05 
414 1 1 0 0 4.97933 5.42298 -0.18414 -0.0105683 0.0237935 -0.132842 0 -0.487454 0.00985049 
322 1 1 0 0 5.2034 9.61729 3.20084 0.0176335 -0.00638572 -0.0764014 0 -0.504856 0.00332686 
20 2 0 -1 1.62076 2.11388 7.90903 5.00802 -0.0266437 0.0250346 0.0168639 -0.00202393 0.0232457 4.3305e-06 
19 2 0 1 1.62086 2.11364 7.90903 5.00852 -0.0261109 0.0247788 0.015639 -0.0025792 0.0232227 4.12053e-06 
188 2 0 -1 1.61126 5.96163 1.07355 2.88624 0.00907113 -0.0270435 0.024231 -0.0185998 0.022374 4.42692e-06 
495 2 0 1 1.62298 8.34224 10.0557 2.14996 -0.0124748 0.00208048 0.0755829 0.00685125 0.0227749 1.57531e-05 
496 2 0 -1 1.62293 8.34252 10.0561 2.1502 -0.012651 0.000270348 0.074083 0.00290153 0.0227915 1.50779e-05 
493 1 1 0 0 8.10684 9.51776 1.84299 -0.0182376 0.011101 0.0370808 0 -0.496063 0.000984165 
745 1 1 0 0 9.65155 0.221545 1.26495 -0.00904705 -0.0300808 -0.0238079 0 -0.503564 0.0008351 
187 2 0 1 1.61074 5.96137 1.07372 2.88625 0.00895212 -0.0258658 0.0234281 -0.0138289 0.0225063 3.84362e-06 
542 1 1 0 0 1.04573 5.57308 8.00151 -0.102766 0.0475136 -0.0531496 0 -0.491551 0.00840905 
687 2 0 1 1.59901 5.14144 8.68442 7.20856 0.0718575 -0.00163906 0.0160308 0.0096791 0.0256096 1.46479e-05 
686 1 1 0 0 5.58961 8.38068 7.49399 0.0609579 0.00153608 0.0267366 0 -0.498063 0.00238301 
685 1 1 0 0 4.61125 9.04911 6.85547 0.0622626 0.01508 0.0312158 0 -0.482647 0.00272994 
37 1 1 0 0 7.72131 6.76063 7.42709 0.0210899 -0.000557561 -0.0858996 0 -0.506791 0.00420572 
38 1 1 0 0 8.40183 5.6086 7.47624 -0.00197161 -0.0210674 0.036884 0 -0.482497 0.000971977 
39 2 0 1 1.57699 7.99323 6.20767 7.46535 0.00792284 -0.00818138 -0.0310118 0.00658558 0.0350422 2.99698e-06 
40 2 0 -1 1.57692 7.99315 6.20776 7.46531 0.00682601 -0.00603099 -0.0305612 0.0017341 0.0350542 2.71765e-06 
173 1 1 0 0 3.94006 5.12961 9.67057 -0.0594292 0.0561337 0.0207586 0 -0.482944 0.00382401 
480 2 0 -1 1.59732 8.26052 9.68588 5.98672 0.0240379 -0.0437806 -0.0495142 0.00569677 0.0309095 1.32537e-05 
176 2 0 -1 1.60196 3.40838 5.08862 10.1764 -0.0020911 0.0258425 0.0416855 -0.00552119 0.0294907 6.48677e-06 
218 1 1 0 0 5.96705 3.3632 9.72687 0.0228575 -0.0870178 0.0204325 0 -0.502039 0.00457568 
541 1 1 0 0 0.380154 6.64727 7.52385 -0.109884 0.0521387 -0.0429935 0 -0.506042 0.00894564 
175 2 0 1 1.60172 3.4085 5.08867 10.1761 -0.00452027 0.0253059 0.0421285 -0.00490297 0.029561 6.54252e-06 
201 1 1 0 0 4.29985 4.6468 6.3943 -0.0229198 -0.0693034 0.0227033 0 -0.497686 0.00314131 
202 1 1 0 0 4.66241 5.82059 6.96567 0.0375538 -0.0331714 -0.0374363 0 -0.499283 0.00210296 
203 2 0 1 1.61253 4.49091 5.2341 6.70661 0.00443297 -0.0325808 0.00379644 0.0163286 0.0311684 3.45447e-06 
204 2 0 -1 1.61256 4.49082 5.23379 6.70652 0.00444593 -0.0328901 0.00410324 0.0193496 0.031156 3.73078e-06 
543 2 0 1 1.59792 0.652266 6.13438 7.71563 -0.0904741 0.0369541 -0.0504694 0.00815344 0.0356126 3.23923e-05 
789 1 1 0 0 7.4733 1.19583 9.66506 0.0158628 0.035751 -0.0232553 0 -0.495179 0.00111304 
728 2 0 -1 1.60866 9.62044 3.1875 8.42272 -0.0455741 0.0121724 0.0973461 -0.00803652 0.0240503 3.13302e-05 
217 1 1 0 0 6.4299 3.99048 8.67174 -0.000747203 -0.0274526 0.0513575 0 -0.498727 0.00182327 
478 1 1 0 0 7.61445 10.034 5.96512 0.018936 -0.0354563 -0.0181675 0 -0.482084 0.00104596 
17 1 1 0 0 1.79791 7.83534 5.59375 -0.0321597 0.0214384 0.00909265 0 -0.49116 0.000847466 
409 1 1 0 0 0.61329 3.04569 7.21502 -0.0210571 -0.0191226 -0.0386808 0 -0.521677 0.00123921 
410 1 1 0 0 1.81928 2.49386 7.31766 -0.0713588 -0.055535 0.0312384 0 -0.517556 0.00491971 
411 2 0 1 1.57601 1.2073 2.77404 7.30776 -0.0358304 -0.0244392 -0.00105297 -0.00510633 0.0608604 5.07089e-06 
412 2 0 -1 1.57614 1.20737 2.77415 7.30777 -0.0320663 -0.0265956 -0.000945185 -0.00451141 0.0608246 4.67087e-06 
465 1 1 0 0 3.56437 0.571446 8.76596 -0.0125101 0.012906 0.0550621 0 -0.500709 0.00180344 
466 1 1 0 0 4.50598 1.38995 9.14798 -0.000924575 -0.000261354 0.00592386 0 -0.497112 1.93601e-05 
467 2 0 1 1.54127 4.00139 0.996782 8.95901 -0.00956306 0.0136981 0.0239514 -0.00505032 0.0427864 2.32483e-06 
468 2 0 -1 1.54135 4.00153 0.99681 8.959 -0.0110285 0.0140516 0.021123 -0.0118411 0.0427501 2.32089e-06 
808 2 0 -1 1.58101 2.14525 8.71577 9.22802 -0.00154702 -0.015523 -0.0457985 0.0143129 0.055637 6.65143e-06 
807 2 0 1 1.58133 2.14544 8.71567 9.22809 -0.00222455 -0.0153723 -0.0462919 0.00781056 0.0555421 6.4793e-06 
725 1 1 0 0 9.84382 2.89523 7.76539 -0.0112632 0.0710086 0.0786695 0 -0.479299 0.0061055 
220 2 0 -1 1.54663 6.19443 3.68009 9.23815 0.0222211 -0.0508276 0.0229477 -0.0093543 0.0451822 9.78432e-06 
688 2 0 -1 1.59901 5.14148 8.68437 7.20848 0.0704535 -5.8741e-05 0.015032 0.0102675 0.0256097 1.40487e-05 
727 2 0 1 1.60889 9.6203 3.18755 8.42314 -0.0444006 0.0108982 0.0949582 0.000106202 0.0239994 2.96167e-05 
219 2 0 1 1.54716 6.19447 3.67993 9.23817 0.0229201 -0.048407 0.0214562 -0.00759083 0.0450369 8.9916e-06 
581 1 1 0 0 7.19945 1.16728 6.99577 0.0939556 -0.00555004 0.0146353 0 -0.497006 0.00487703 
582 1 1 0 0 6.60938 1.9667 6.09961 -0.0436294 -0.0830384 0.0410078 0 -0.503532 0.00563384 
583 2 0 1 1.56707 6.89666 1.54828 6.52288 0.0256134 -0.0249182 0.0311896 -0.0163992 0.040258 6.53663e-06 
584 2 0 -1 1.56707 6.89663 1.54833 6.52287 0.0262708 -0.0262001 0.0319691 -0.00846449 0.0402489 6.53904e-06 
726 1 1 0 0 9.46804 3.45504 8.96325 -0.0823892 -0.0336802 0.0939358 0 -0.50235 0.009002 
806 1 1 0 0 1.56595 9.02154 8.95018 0.0291297 0.021929 -0.0480691 0 -0.50213 0.00195672 
544 2 0 -1 1.59822 0.652163 6.13459 7.71555 -0.0912279 0.037104 -0.050255 0.00295682 0.0355311 3.26141e-05 
477 1 1 0 0 8.80107 9.37449 6.01212 0.0135957 -0.0621118 -0.0497839 0 -0.508661 0.00350547 
345 1 1 0 0 9.93921 0.255245 8.21747 0.0232032 -0.0180143 0.0180295 0 -0.4951 0.000638596 
479 2 0 1 1.59672 8.26054 9.68589 5.98671 0.0222386 -0.0421679 -0.0491905 0.00369865 0.0310662 1.25393e-05 
792 2 0 -1 1.54023 7.14665 0.632693 9.74619 0.010114 0.00287428 -0.0302635 -0.0224676 0.0436971 3.74642e-06 
791 2 0 1 1.54071 7.14661 0.632668 9.74624 0.0128417 0.00678138 -0.0305355 -0.0259836 0.0435641 4.39875e-06 
481 1 1 0 0 4.02081 1.73843 5.99103 -0.0187323 0.0101559 0.0357719 0 -0.502845 0.000931937 
521 1 1 0 0 9.42933 1.6767 5.12081 -0.0107393 0.0409229 0.00983595 0 -0.497528 0.00101423 
805 1 1 0 0 2.6522 8.43506 9.43469 -0.0110035 -0.0464654 -0.0354678 0 -0.527334 0.0019019 
483 2 0 1 1.55627 3.73477 2.05062 5.4897 -0.015161 0.0131912 0.0416183 -0.0128512 0.046711 6.02563e-06 
484 2 0 -1 1.55635 3.73479 2.05049 5.48969 -0.0147902 0.0124277 0.0415589 -0.00504366 0.0467022 5.65129e-06 
214 1 1 0 0 7.57114 4.80933 5.17616 0.0468762 0.0408937 -0.00541268 0 -0.520421 0.0020959 
256 2 0 -1 1.62662 1.82463 0.818611 14.1873 -0.023273 -0.0162475 0.0509025 0.0192614 0.0297276 9.79895e-06 
365 1 1 0 0 5.93378 3.43889 14.5883 -0.0753746 -0.0656061 -0.00884673 0 -0.498268 0.0054098 
637 1 1 0 0 8.39339 3.21088 13.0305 -0.00920822 0.0387193 -0.00635634 0 -0.490251 0.000873187 
639 2 0 1 1.61412 8.39657 2.87777 12.3985 0.0151243 0.0458822 -0.0144147 -0.00165192 0.0295115 6.78273e-06 
638 1 1 0 0 8.36885 2.58836 11.8348 0.0563847 0.0818635 -0.0243009 0 -0.500401 0.00562892 
700 2 0 -1 1.56877 1.5321 2.11818 10.9002 0.046857 -0.0095047 -0.0158178 0.00795854 0.0587345 6.88906e-06 
611 2 0 1 1.59108 0.324937 9.66497 12.1128 0.0259491 0.0470402 -0.0725053 0.000612035 0.0293952 2.17139e-05 
255 2 0 1 1.62618 1.82462 0.818435 14.1873 -0.0231577 -0.0147173 0.0520747 0.0147082 0.029838 9.67087e-06 
156 2 0 -1 1.6285 6.1994 8.67424 10.9354 -0.0261493 0.0410205 0.059283 -0.00569607 0.0192073 1.5746e-05 
155 2 0 1 1.62841 6.19942 8.67426 10.9354 -0.0270019 0.04056 0.0594014 -0.00999911 0.0192295 1.59392e-05 
254 1 1 0 0 1.79077 0.173591 14.1141 -0.0385513 -0.0323274 0.0708859 0 -0.503407 0.00406179 
571 2 0 1 1.53872 8.79435 5.90896 10.7282 0.0150261 0.0121574 0.040218 0.00406549 0.0553038 5.3421e-06 
816 2 0 -1 1.54663 9.86878 8.95955 11.6397 0.0194622 -0.0476574 -0.0164644 -0.00186905 0.056368 7.79585e-06 
245 1 1 0 0 2.71053 8.134 12.5995 0.0652747 -0.0467247 -0.0957412 0 -0.502653 0.00839139 
246 1 1 0 0 3.44224 7.05225 12.8227 0.0634887 -0.0409692 -0.0611332 0 -0.492462 0.00507802 
247 2 0 1 1.57488 3.08609 7.63485 12.6989 0.0571589 -0.0232195 -0.0811451 -0.0015493 0.0361556 2.77112e-05 
248 2 0 -1 1.57497 3.08617 7.63479 12.6989 0.0573246 -0.0227703 -0.080789 -0.00258198 0.0361311 2.75615e-05 
570 1 1 0 0 9.3553 5.82374 11.0858 0.00227204 0.0470997 0.0504308 0 -0.503996 0.00256241 
697 1 1 0 0 2.02587 1.88271 10.5431 0.0779591 -0.0296089 -0.0107794 0 -0.519203 0.00380076 
174 1 1 0 0 2.92062 5.00426 10.5913 0.0186393 -0.000546435 0.0761597 0 -0.503089 0.00330488 
785 1 1 0 0 7.95797 7.70217 14.5231 0.0265305 0.0546365 -0.0104514 0 -0.491238 0.00204176 
273 1 1 0 0 4.574 1.55044 12.5317 -0.042788 0.00215672 -0.0183794 0 -0.491952 0.00116824 
274 1 1 0 0 4.79874 2.86356 12.3625 0.054614 -0.0161543 -0.068802 0 -0.502647 0.00428826 
275 2 0 1 1.5787 4.71838 2.25421 12.4287 0.0167938 -0.0143879 -0.0475331 0.0137173 0.0358272 7.70483e-06 
276 2 0 -1 1.57885 4.71835 2.25406 12.4288 0.0159987 -0.016825 -0.0459315 0.00986939 0.0357833 7.25749e-06 
640 2 0 -1 1.61424 8.39656 2.87745 12.398 0.0152999 0.0457098 -0.0123578 -0.00629542 0.0294708 6.68185e-06 
699 2 0 1 1.56882 1.53191 2.11826 10.9002 0.0463117 -0.00923653 -0.0156759 0.00588486 0.0587138 6.67086e-06 
787 2 0 1 1.58988 8.19877 7.23156 14.0348 -0.0167986 0.0165456 -0.00269964 0.00124943 0.0298482 1.50496e-06 
572 2 0 -1 1.53824 8.79405 5.90892 10.728 0.0150413 0.0140594 0.0389184 -0.00172983 0.0554457 5.175e-06 
813 1 1 0 0 9.57002 8.37669 11.9206 0.0398144 -0.0726156 -0.0553743 0 -0.494005 0.00533495 
183 2 0 1 1.59903 -0.0981659 6.17004 11.3843 -0.0750511 0.00347286 0.0585283 -0.00290308 0.0411442 2.42022e-05 
609 1 1 0 0 0.433079 10.0309 12.6574 -0.0364943 0.112835 -0.0926618 0 -0.492259 0.0121754 
815 2 0 1 1.54679 9.86874 8.9595 11.6397 0.0164227 -0.0488619 -0.01461 -0.0116369 0.0563216 7.92519e-06 
253 1 1 0 0 1.8726 1.53888 14.1853 -0.00575488 -0.0171439 0.0338764 0 -0.493244 0.000792698 
184 2 0 -1 1.59917 -0.0980603 6.17018 11.3843 -0.0755308 0.00330849 0.0588158 -0.00286051 0.0411196 2.44813e-05 
610 1 1 0 0 0.237966 9.29757 11.5423 0.0626667 -0.0145326 -0.037933 0 -0.494286 0.00299805 
421 1 1 0 0 2.69622 4.25969 13.3771 0.0348114 0.0344263 -0.0250147 0 -0.498377 0.00162488 
422 1 1 0 0 2.18829 4.48243 14.6173 -0.0348858 -0.0383884 -0.0579165 0 -0.48993 0.00324951 
423 2 0 1 1.60437 2.4621 4.37222 13.9483 0.00734673 0.00335424 -0.0511232 -0.00969337 0.0284449 7.33076e-06 
424 2 0 -1 1.60433 2.46217 4.37223 13.9481 0.00567896 0.00309224 -0.0478163 -0.00697921 0.0284625 6.30542e-06 
513 1 1 0 0 5.42202 5.50715 11.8618 -0.0142059 0.010443 -0.0696833 0 -0.507986 0.00277733 
514 1 1 0 0 6.32593 5.75435 12.7461 -0.0546016 0.0300681 -0.0551607 0 -0.501897 0.00372424 
515 2 0 1 1.52863 5.82874 5.6169 12.3172 -0.0154052 0.0196572 -0.05745 -0.008553 0.0527534 1.061e-05 
516 2 0 -1 1.52863 5.829 5.61693 12.3175 -0.0146292 0.0200876 -0.0552576 -0.0118191 0.0527579 1.00676e-05 
698 1 1 0 0 1.05775 2.37528 11.2985 0.0489408 -0.00559848 -0.0521496 0 -0.518226 0.00276631 
153 1 1 0 0 5.67234 8.23962 11.04 -0.0398874 0.0334567 0.0551909 0 -0.486159 0.00309436 
612 2 0 -1 1.59126 0.325045 9.66503 12.1127 0.0278508 0.0472025 -0.07159 0.00967868 0.0293608 2.18624e-05 
569 1 1 0 0 8.23885 5.97619 10.4128 0.0145777 -0.0185242 0.0234753 0 -0.517109 0.000594934 
182 1 1 0 0 0.363625 6.36377 11.7519 -0.111689 0.0192768 0.0637349 0 -0.518424 0.00908905 
786 1 1 0 0 8.42291 6.85386 13.5905 -0.0666418 -0.00387119 0.010359 0 -0.496009 0.00245308 
788 2 0 -1 1.58998 8.19899 7.23139 14.0345 -0.0152903 0.0169362 -0.00199546 -0.00677092 0.0298187 1.49052e-06 
601 1 1 0 0 7.06824 -0.0183436 12.5508 0.0318375 -0.0464989 -0.038048 0 -0.489722 0.00248533 
154 1 1 0 0 6.74062 9.07575 10.8715 -0.0343327 0.000644991 0.0410984 0 -0.48938 0.00154182 
781 1 1 0 0 3.35846 9.25954 14.9021 0.087505 0.0319598 -0.0152475 0 -0.503733 0.00479015 
266 1 1 0 0 0.225122 8.08992 14.4911 -0.00774417 -0.0214619 -0.120406 0 -0.494863 0.00807303 
81 1 1 0 0 5.2525 6.38545 15.1078 -0.0528324 -0.0209645 0.0228949 0 -0.497902 0.00201848 
646 1 1 0 0 7.15808 7.51596 17.476 0.0680627 0.0188509 0.0286356 0 -0.487011 0.00312204 
817 1 1 0 0 8.97527 5.48802 17.6952 -0.0895101 0.054149 -0.027893 0 -0.477957 0.00630129 
350 1 1 0 0 0.472998 4.93897 17.1611 -0.0259116 -0.0236518 0.062316 0 -0.507346 0.0027491 
351 2 0 1 1.57971 0.194039 4.46018 16.7908 -0.0180293 -0.0348868 0.0338228 0.00730687 0.0483107 7.26913e-06 
784 2 0 -1 1.59123 3.04632 9.65615 15.4089 0.0225255 -0.0328899 0.0204001 0.00732733 0.0478514 5.45438e-06 
84 2 0 -1 1.56896 4.95322 6.52698 15.7093 -0.0264964 0.0136519 0.0179405 0.00457233 0.0421947 3.26898e-06 
820 2 0 -1 1.61046 8.52802 4.90626 17.56 -0.0380745 -0.00581384 0.0101942 0.00291012 0.02297 4.24959e-06 
819 2 0 1 1.61052 8.52827 4.90659 17.56 -0.0388952 -0.00493042 0.0092387 -0.00835378 0.0229595 4.46583e-06 
818 1 1 0 0 8.17383 4.39292 17.4757 0.0123201 -0.031415 0.0566104 0 -0.498158 0.00233482 
724 2 0 -1 1.61586 5.10952 0.331158 15.9048 0.0508801 0.000913115 -0.0230346 -0.0104943 0.038426 8.54005e-06 
763 2 0 1 1.61465 6.85364 1.73603 18.5821 -0.0295604 -0.00578882 0.0177024 0.00813266 0.0348998 3.38719e-06 
370 1 1 0 0 9.18025 1.26182 16.6006 0.00207222 -0.0246023 -0.0154893 0 -0.497809 0.000456644 
369 1 1 0 0 8.92411 1.05717 15.2958 0.0175224 -0.0584767 -0.00660388 0 -0.502593 0.00202666 
645 1 1 0 0 7.74924 8.71085 17.5895 0.0467751 0.0372387 0.0326212 0 -0.49974 0.00249358 
722 1 1 0 0 4.42768 0.623187 15.8956 0.0557814 -0.0900797 0.000647409 0 -0.497845 0.00603475 
352 2 0 -1 1.57957 0.19415 4.46047 16.7908 -0.0190625 -0.0364835 0.0326753 0.00952186 0.04834 7.54626e-06 
371 2 0 1 1.59013 9.05574 1.1276 15.9339 -0.000429462 -0.0490057 -0.0245026 0.00482318 0.0371122 8.05146e-06 
366 1 1 0 0 6.74984 3.92988 15.5076 -0.0349699 -0.00192584 -0.0516466 0 -0.514616 0.00209321 
367 2 0 1 1.56487 6.3748 3.6962 15.0835 -0.0499129 -0.0141169 -0.0245275 0.0138531 0.0480954 9.16217e-06 
368 2 0 -1 1.56443 6.37488 3.69609 15.0835 -0.0479907 -0.0128507 -0.0216799 0.0150747 0.0482208 8.28914e-06 
624 2 0 -1 1.58058 5.01803 8.93014 19.542 -0.0459432 -0.0160304 0.00228142 -0.00196085 0.0303225 6.33502e-06 
723 2 0 1 1.61593 5.1095 0.3312 15.9048 0.04942 -6.40828e-06 -0.023121 -0.00697899 0.0384122 8.03513e-06 
463 2 0 1 1.60896 0.491999 9.99276 18.3214 0.0331225 -0.00994512 0.0293656 0.0109929 0.0276844 5.7301e-06 
372 2 0 -1 1.59034 9.05566 1.12766 15.9338 0.000994254 -0.0502518 -0.0206296 0.000977527 0.0370673 7.87272e-06 
415 2 0 1 1.60785 5.12069 5.34287 19.2998 -0.0264587 0.0216908 -0.0850321 -0.00940071 0.0198441 2.25774e-05 
648 2 0 -1 1.58505 7.46514 8.12398 17.5206 0.040998 0.0292561 0.0493884 0.00960469 0.0303323 1.34526e-05 
647 2 0 1 1.58539 7.4648 8.1236 17.5206 0.0409024 0.0338839 0.0500198 0.00907014 0.0302437 1.43582e-05 
589 1 1 0 0 3.97123 3.43349 16.7465 0.0694941 0.0202859 0.00678515 0 -0.501013 0.00284203 
590 1 1 0 0 3.04863 2.89857 17.5693 0.0320697 0.036021 -0.0300061 0 -0.504936 0.00173433 
591 2 0 1 1.59386 3.50192 3.16304 17.1571 0.0301106 0.0161917 -0.0110377 -0.0104645 0.0390603 3.66042e-06 
592 2 0 -1 1.59404 3.50199 3.16306 17.1571 0.0325603 0.0174521 -0.0121861 -0.0028395 0.039005 4.0511e-06 
617 1 1 0 0 2.25551 7.17253 17.0542 0.00598862 -0.0016698 -0.0179237 0 -0.491607 0.000193471 
618 1 1 0 0 2.51995 6.83953 18.3482 0.00526733 0.00810537 -0.0223748 0 -0.504277 0.000319346 
619 2 0 1 1.59306 2.37754 6.98548 17.7317 -0.00138678 -0.00793271 -0.0034917 -0.0066034 0.0325147 2.92632e-07 
620 2 0 -1 1.59277 2.37758 6.98556 17.7315 -0.00206177 -0.00932389 -0.00252732 -0.0129421 0.0325811 5.95136e-07 
82 1 1 0 0 4.64336 6.61884 16.2565 -0.0128154 0.049522 0.0403708 0 -0.503508 0.0022827 
416 2 0 -1 1.60754 5.12068 5.34286 19.2996 -0.0259718 0.0211297 -0.0851621 -0.0122897 0.0199195 2.26296e-05 
461 1 1 0 0 0.457464 9.48484 18.7514 0.00141029 -0.0200905 0.0310822 0 -0.497367 0.000737373 
83 2 0 1 1.5691 4.95298 6.52697 15.7098 -0.0276912 0.014302 0.0212665 0.00383271 0.0421716 3.82534e-06 
621 1 1 0 0 5.06913 8.52308 18.921 -0.0551981 -0.0119133 -0.0115928 0 -0.476497 0.00178637 
838 1 1 0 0 0.38638 1.07351 19.7211 -0.0252955 -0.0413816 -0.0678486 0 -0.512174 0.00373907 
464 2 0 -1 1.60912 0.492084 9.99312 18.3211 0.0314195 -0.0143105 0.0348886 0.0105086 0.0276417 6.6448e-06 
70 1 1 0 0 10.3087 9.57587 19.7007 0.0764634 0.0313073 0.0666885 0 -0.501766 0.00606045 
623 2 0 1 1.5804 5.01806 8.9303 19.5422 -0.0452648 -0.0149561 0.00436579 0.00747919 0.0303876 6.22238e-06 
764 2 0 -1 1.61464 6.85376 1.7361 18.5823 -0.0278856 -0.00433971 0.0203461 0.00788656 0.0349015 3.35184e-06 
761 1 1 0 0 6.4559 1.47553 18.0622 -0.0654249 -0.0303544 0.0436294 0 -0.501031 0.00381948 
762 1 1 0 0 7.22141 1.99384 19.0959 -0.00128826 0.0109919 -0.0233652 0 -0.505562 0.000359308 
413 1 1 0 0 5.2172 5.24448 18.652 -0.0288346 -0.00796992 -0.110308 0 -0.485756 0.00702196 
783 2 0 1 1.59136 3.04651 9.65595 15.4086 0.0239833 -0.0341761 0.0179546 0.00802852 0.0478138 5.6366e-06 
90 1 1 0 0 1.41548 4.15922 20.0225 -0.0372262 -0.0118182 0.0175126 0 -0.490571 0.000984876 
622 1 1 0 0 5.04873 9.28412 20.0165 -0.0389046 -0.0513872 0.0212898 0 -0.503727 0.00247676 
402 1 1 0 0 8.27227 6.9059 20.1729 0.0165766 0.169744 0.0558345 0 -0.493677 0.017312 
766 1 1 0 0 3.87904 2.37182 20.0283 -0.00739638 -0.0364316 0.0202735 0 -0.487031 0.000963821 
695 2 0 1 1.62557 0.388643 15.8478 0.555709 0.03747 0.0463874 -0.0815859 -0.00221291 0.0341263 2.72395e-05 
441 1 1 0 0 2.27344 10.3884 2.1449 0.0227517 0.0547761 0.0116627 0 -0.487297 0.00196426 
607 2 0 1 1.60306 10.0353 13.8368 0.667078 0.0056789 0.0243226 -0.00112513 -0.000416745 0.0250838 1.66715e-06 
63 2 0 1 1.56938 10.0455 15.5058 3.80607 -0.0306493 -0.0279449 0.019597 0.00379962 0.0345633 5.63994e-06 
626 1 1 0 0 4.18664 19.5058 4.79551 -0.0394978 -0.00544151 0.00616061 0 -0.485566 0.000874942 
64 2 0 -1 1.56959 10.0459 15.5058 3.80635 -0.0304341 -0.0274391 0.0198155 0.000789454 0.0345042 5.52554e-06 
321 1 1 0 0 4.3439 10.3551 3.87783 -0.0144586 -0.0609721 -0.0482279 0 -0.514454 0.00336109 
61 1 1 0 0 9.71022 15.5356 3.33425 -0.0534783 -0.0122333 0.0279941 0 -0.508625 0.00203907 
323 2 0 1 1.56205 4.74268 10.0021 3.50841 -0.00455168 -0.0395889 -0.0602094 -0.000503898 0.052591 1.39011e-05 
324 2 0 -1 1.5623 4.74306 10.0018 3.50801 -0.00284579 -0.0407038 -0.0611684 -0.000166852 0.0525174 1.4416e-05 
385 1 1 0 0 4.84592 16.7061 2.26828 0.0122722 -0.0359448 -0.0854665 0 -0.511405 0.00470206 
386 1 1 0 0 4.45793 15.4168 2.42556 0.0568577 -0.0282574 -0.0452708 0 -0.494453 0.00326871 
387 2 0 1 1.60503 4.68165 16.0849 2.32838 0.0238006 -0.0459536 -0.0747765 -0.00398509 0.0372291 2.20824e-05 
388 2 0 -1 1.60516 4.68154 16.0843 2.32831 0.0249403 -0.0440616 -0.0751395 -0.0111348 0.0371918 2.21377e-05 
389 1 1 0 0 5.22214 12.4468 0.712271 -0.0230691 0.0485507 0.0973046 0 -0.499718 0.00664282 
390 1 1 0 0 4.04485 11.9145 0.808877 -0.015286 0.0334822 0.0303385 0 -0.487922 0.00122301 
391 2 0 1 1.5742 4.67104 12.1939 0.780206 -0.0218361 0.0457163 0.0740153 -0.00281849 0.0336499 2.14675e-05 
392 2 0 -1 1.57401 4.67099 12.1938 0.780233 -0.0220736 0.0456038 0.0730557 0.0010376 0.0337032 2.10779e-05 
405 1 1 0 0 8.198 18.3927 4.81661 0.022097 0.140624 0.00742997 0 -0.502218 0.0109224 
696 2 0 -1 1.62549 0.388747 15.8479 0.555557 0.0379376 0.0477916 -0.0837731 -0.00224369 0.0341433 2.86508e-05 
407 2 0 1 1.58124 7.85776 18.9473 4.92818 -0.0330151 0.0927589 -0.000682233 -0.000585814 0.0394138 2.58509e-05 
408 2 0 -1 1.58091 7.85777 18.9473 4.92825 -0.0313834 0.0913108 -0.000460147 0.00404951 0.0394988 2.48914e-05 
433 1 1 0 0 6.72755 12.9832 2.40795 -0.0501352 0.0285662 0.104946 0 -0.480229 0.0077102 
434 1 1 0 0 7.4922 13.523 3.40767 0.088768 0.0316375 0.00459105 0 -0.493413 0.00478517 
435 2 0 1 1.60937 7.134 13.2522 2.92318 0.0321054 0.0324283 0.0546985 0.00857645 0.0213674 1.36773e-05 
436 2 0 -1 1.60937 7.13401 13.2523 2.92315 0.0305462 0.0311163 0.0534289 0.00368531 0.0213676 1.27085e-05 
99 2 0 1 1.59328 0.499804 17.2003 4.34465 -0.0417655 0.0030259 0.00862471 0.0130681 0.0385288 5.21549e-06 
442 1 1 0 0 0.929712 10.647 2.00584 0.0618105 0.0460939 -0.0827311 0 -0.489056 0.0068751 
443 2 0 1 1.61661 1.61224 10.5141 2.03817 0.025985 0.0503318 -0.0303211 -0.0154934 0.0207232 1.14868e-05 
444 2 0 -1 1.61674 1.61194 10.514 2.03816 0.0261497 0.0510276 -0.0308384 -0.0184739 0.0206864 1.19845e-05 
453 1 1 0 0 7.85303 17.3097 2.24768 0.0218658 -0.0472668 -0.0476327 0 -0.531133 0.00267762 
454 1 1 0 0 7.91938 17.909 1.0578 -0.115853 -0.0196532 -0.0389466 0 -0.494106 0.00823798 
455 2 0 1 1.568 7.90735 17.548 1.73055 -0.0343101 -0.0309937 -0.0207567 0.000437156 0.056802 6.84947e-06 
456 2 0 -1 1.56767 7.90746 17.5479 1.73053 -0.0341737 -0.031403 -0.0207486 0.000116618 0.0568812 6.8914e-06 
608 2 0 -1 1.60319 10.0355 13.8366 0.667086 0.00386806 0.0259151 -0.000748494 -0.00160738 0.0250514 1.83731e-06 
485 1 1 0 0 2.12631 13.8241 2.50797 0.0391545 -0.121923 -0.0259575 0 -0.503124 0.00917714 
486 1 1 0 0 2.48972 14.2631 3.73308 -0.0904045 -0.0746486 -0.00729829 0 -0.493852 0.0074175 
487 2 0 1 1.60304 2.29598 14.0277 3.11995 -0.0214893 -0.0749295 -0.0268052 0.000753043 0.033477 1.81188e-05 
488 2 0 -1 1.60286 2.29592 14.0277 3.11997 -0.0218582 -0.0764986 -0.0266241 -0.00221365 0.0335291 1.87779e-05 
489 1 1 0 0 1.53058 19.2507 1.68379 -0.0779752 0.041116 -0.0310849 0 -0.492161 0.00469656 
490 1 1 0 0 2.48639 18.7235 0.907825 -0.0921143 -0.0199742 -0.0428368 0 -0.501297 0.00576203 
491 2 0 1 1.60222 2.03386 19.0074 1.29168 -0.0729558 -0.00228454 -0.0539531 0.00231373 0.0312742 2.19786e-05 
492 2 0 -1 1.60211 2.03411 19.0072 1.29146 -0.0718193 -0.00418778 -0.0560199 0.00473004 0.0313008 2.22129e-05 
494 1 1 0 0 8.59942 10.6241 2.49937 0.00314833 -0.0121517 0.0976351 0 -0.487091 0.00520899 
605 1 1 0 0 9.50695 14.2529 0.836107 0.000387537 0.0565877 -0.00630642 0 -0.48807 0.00174279 
100 2 0 -1 1.59285 0.499793 17.2004 4.34481 -0.0412717 0.00192246 0.00913384 0.00846762 0.0386364 4.91756e-06 
98 1 1 0 0 0.768885 17.1784 3.7208 -0.0370394 -0.000695083 -0.00803854 0 -0.502888 0.000772475 
694 1 1 0 0 0.76559 16.1723 0.130789 0.0622355 0.0215232 -0.0596612 0 -0.50584 0.00424449 
97 1 1 0 0 0.172189 17.2767 4.9062 -0.0424933 0.0166995 0.0215148 0 -0.502718 0.00136938 
334 1 1 0 0 5.20691 19.3505 0.0691213 0.0176991 0.0165262 -0.00981062 0 -0.498041 0.000366945 
194 1 1 0 0 6.39377 15.4401 0.0663452 -0.01683 0.026037 0.0116309 0 -0.491872 0.000589402 
342 1 1 0 0 9.66514 14.8609 9.54622 -0.0266384 -0.072608 -0.0104093 0 -0.496118 0.00327363 
50 1 1 0 0 2.87929 11.7758 6.00066 0.0285206 0.035664 0.0999327 0 -0.503617 0.00648927 
51 2 0 1 1.60936 2.38213 11.4182 5.79626 0.0479748 -0.00131183 0.075515 -0.00472701 0.0321327 2.13917e-05 
52 2 0 -1 1.60932 2.38253 11.4183 5.79633 0.0493959 0.000123559 0.0752142 0.00208955 0.0321417 2.15992e-05 
65 1 1 0 0 9.39625 12.7575 5.93519 -0.0655509 -0.0698247 -0.00679898 0 -0.505981 0.00495551 
67 2 0 1 1.57416 9.05066 13.0818 6.39722 -0.0208609 0.00243673 -0.0339774 -0.00706434 0.0418573 4.35431e-06 
68 2 0 -1 1.57393 9.05078 13.0816 6.39714 -0.0220544 0.00385853 -0.0317628 -0.00884342 0.0419219 4.18314e-06 
676 2 0 -1 1.58627 4.31304 11.3893 9.06653 -0.072936 0.00471473 0.0206291 -0.0116061 0.0582697 1.56479e-05 
347 2 0 1 1.55649 9.90597 20.003 7.70569 0.0071389 -0.0188336 0.00135167 0.00404395 0.0419962 1.11926e-06 
262 1 1 0 0 1.33086 19.5375 8.25268 0.00457123 0.0979737 -0.0260001 0 -0.477166 0.00553451 
127 2 0 1 1.55647 9.30694 16.588 7.23982 0.00565442 -0.0571737 -0.0485304 -0.0075589 0.0328216 1.51956e-05 
836 2 0 -1 1.58769 5.57287 17.9696 8.45681 0.0307893 -0.0273294 -0.0247504 0.00342292 0.0261874 6.17611e-06 
835 2 0 1 1.58741 5.57278 17.9695 8.45683 0.0333597 -0.0250693 -0.0251192 0.00705557 0.026263 6.42517e-06 
834 1 1 0 0 5.10433 17.5585 8.81445 0.0361671 -0.034193 -0.0363919 0 -0.480366 0.00204356 
66 1 1 0 0 8.6799 13.3835 6.88701 -0.00111284 0.078708 -0.0704096 0 -0.500675 0.00599569 
520 2 0 -1 1.57615 6.62557 14.2764 8.6526 0.0144787 -0.0135821 -0.0231079 -0.00963523 0.0405525 2.66033e-06 
346 1 1 0 0 9.85217 19.6017 7.18191 -0.0308456 0.0171166 0.0103504 0 -0.506045 0.000726532 
257 1 1 0 0 2.45313 15.122 6.53091 -0.0629249 -0.0348596 0.0205235 0 -0.475726 0.00300811 
258 1 1 0 0 3.81695 14.8631 6.47431 -0.0602369 -0.0321054 -0.0254317 0 -0.463716 0.00285226 
259 2 0 1 1.64951 3.09681 14.9996 6.49183 -0.0354095 -0.0344353 -0.0113819 0.00209882 -0.00309245 6.85932e-06 
260 2 0 -1 1.64933 3.09609 14.9998 6.4919 -0.0383364 -0.0334015 -0.0113112 0.00159403 -0.00304969 7.23987e-06 
261 1 1 0 0 1.93757 18.4564 7.67375 -0.0723824 0.023847 0.031503 0 -0.487887 0.00365554 
348 2 0 -1 1.55631 9.90591 20.0032 7.70587 0.00642156 -0.0187616 0.00203333 -0.00493231 0.0420348 1.10821e-06 