ITEM: TIMESTEP
25000
ITEM: NUMBER OF ATOMS
864
ITEM: BOX BOUNDS pp pp pp
0.0000000000000000e+00 2.0147801999999999e+01
0.0000000000000000e+00 2.0147801999999999e+01
0.0000000000000000e+00 2.0147801999999999e+01
ITEM: ATOMS id type q c_1a[1] c_1a[2] x y z vx vy vz c_1a[3] c_peatom c_keatom 
5 1 1 0 0 8.13348 2.54388 1.25775 -0.00788867 0.0618141 -0.000160743 0 -0.519608 0.00208744 
7 2 0 1 1.53805 8.0193 3.15271 1.09719 -0.00842753 0.0280962 -0.0455905 -0.00253891 0.0650704 7.84929e-06 
8 2 0 -1 1.53861 8.01926 3.15261 1.0972 -0.00836236 0.0280467 -0.045045 -0.00968631 0.0649084 7.88188e-06 
33 1 1 0 0 3.61537 7.70661 1.44549 0.0653168 -0.0298406 -0.0441159 0 -0.513771 0.00381821 
34 1 1 0 0 2.48528 7.05574 1.28321 0.074546 -0.0874274 -0.00997676 0 -0.50745 0.00714955 
35 2 0 1 1.55559 3.05865 7.39306 1.39536 0.0525445 -0.0643178 -0.0262335 0.0113026 0.0533171 2.04828e-05 
36 2 0 -1 1.55545 3.05881 7.39289 1.39537 0.0562456 -0.0622417 -0.0246255 0.011353 0.0533581 2.064e-05 
768 2 0 -1 1.60726 3.659 2.12178 0.568946 0.0175965 0.0108504 -0.0492088 0.0109681 0.024816 7.8369e-06 
767 2 0 1 1.60703 3.65875 2.12157 0.569202 0.0184844 0.0111089 -0.0501801 0.0124572 0.0248699 8.26463e-06 
90 1 1 0 0 1.64123 4.117 0.123711 -0.0078095 0.0282523 -0.0514038 0 -0.493799 0.00188225 
483 2 0 1 1.55075 3.85821 2.28866 4.99727 0.0116696 -0.00967013 0.0332351 0.00471976 0.056648 3.60227e-06 
186 1 1 0 0 5.60862 1.19669 2.65761 -0.0258772 0.101816 0.0173076 0 -0.491267 0.00609354 
557 1 1 0 0 1.20707 0.314508 4.70419 0.0508369 -0.013224 -0.0433404 0 -0.499244 0.00249298 
482 1 1 0 0 3.26889 2.44019 4.69092 0.0317257 0.0210347 -0.00214088 0 -0.507502 0.000781366 
189 1 1 0 0 3.76412 4.85149 3.13915 -0.0277499 0.0311414 0.0726863 0 -0.519132 0.0037753 
213 1 1 0 0 7.78395 3.83267 4.08099 0.0240068 0.0316612 0.0501976 0 -0.507431 0.00220319 
191 2 0 1 1.54987 4.40848 4.68643 3.12512 -0.023484 0.0241661 0.0890188 -0.0117726 0.0648912 2.44346e-05 
192 2 0 -1 1.54957 4.4086 4.68648 3.12502 -0.0262092 0.0255378 0.0891361 -0.0101854 0.0649641 2.49635e-05 
233 1 1 0 0 7.16099 7.96079 4.22449 -0.0159542 0.00533419 -0.00236027 0 -0.506427 0.000155116 
234 1 1 0 0 6.82192 7.20507 3.19232 0.0098269 -0.0856365 0.0548276 0 -0.536659 0.00561003 
235 2 0 1 1.56951 6.91263 7.53263 3.65997 -0.0166943 -0.0372268 0.026549 0.00690818 0.0649032 6.41324e-06 
236 2 0 -1 1.56925 6.91252 7.53259 3.65984 -0.0133553 -0.0327793 0.0302773 0.0127684 0.0649712 6.11102e-06 
216 2 0 -1 1.58879 7.44556 4.26296 4.36547 0.0135792 -0.00438842 0.0408889 0.00168468 0.0341238 5.00672e-06 
92 2 0 -1 1.60025 1.13549 4.59718 0.111449 -0.0208909 -0.00669628 -0.0106757 -0.00170718 0.0299251 1.593e-06 
522 1 1 0 0 9.99949 2.20637 4.46613 0.0616743 -0.00276638 -0.0508945 0 -0.508505 0.00344121 
661 1 1 0 0 10.0198 7.02428 4.66622 0.0434 -0.0353018 0.0859247 0 -0.493643 0.0056512 
215 2 0 1 1.58883 7.4454 4.26312 4.36556 0.012417 -0.00371486 0.041866 0.00769171 0.0341182 5.23985e-06 
566 1 1 0 0 1.09274 5.12987 3.97325 0.00996857 0.0233139 0.0596088 0 -0.491432 0.00225564 
401 1 1 0 0 8.68348 6.66098 1.09649 -0.00695636 0.015525 -0.0605478 0 -0.513824 0.00212626 
481 1 1 0 0 4.43043 2.18122 5.25877 -0.0274747 -0.0443363 0.0752094 0 -0.516268 0.00450309 
484 2 0 -1 1.55023 3.85808 2.28856 4.99726 0.0110541 -0.00922643 0.0334239 0.000747586 0.0567855 3.53275e-06 
558 1 1 0 0 0.534561 1.47204 4.41221 0.0171707 -0.0269444 -0.0158247 0 -0.499101 0.000683365 
622 1 1 0 0 5.33961 9.73307 0.125123 -0.000956833 0.0191059 -0.0579726 0 -0.492494 0.00200334 
565 1 1 0 0 0.726054 4.05821 3.22385 0.00597898 -0.0161817 0.09892 0 -0.484487 0.00542001 
560 2 0 -1 1.61487 0.860472 0.897408 4.5206 0.0290164 -0.0165834 -0.0267026 0.00655664 0.033042 4.9655e-06 
765 1 1 0 0 3.34078 1.82703 1.00374 0.0222174 -0.0154775 -0.0603175 0 -0.503922 0.00234984 
18 1 1 0 0 2.46235 8.06776 4.1743 0.0472424 -0.0580759 0.0194617 0 -0.498651 0.0032164 
91 2 0 1 1.60004 1.13552 4.59712 0.111325 -0.0201546 -0.00685261 -0.0110599 0.00205747 0.0299748 1.54296e-06 
567 2 0 1 1.60693 0.925141 4.57755 3.63366 0.010564 0.000137557 0.0635667 0.0114621 0.0206558 1.13347e-05 
6 1 1 0 0 7.92887 3.79739 0.967816 -0.0269594 0.0208528 -0.114323 0 -0.51791 0.00765013 
404 2 0 -1 1.57474 8.31495 6.46157 0.621691 0.0124068 -0.0199228 -0.0241026 0.00021355 0.0437277 3.01791e-06 
568 2 0 -1 1.60706 0.925149 4.57789 3.63379 0.00971052 -0.000236454 0.0643114 0.00650701 0.020627 1.13645e-05 
559 2 0 1 1.61464 0.860754 0.896911 4.52072 0.0293821 -0.0170066 -0.026616 0.00761748 0.0330997 5.07812e-06 
402 1 1 0 0 7.94194 6.22561 0.0523227 0.0279068 -0.0795619 -0.0360334 0 -0.493834 0.00451936 
190 1 1 0 0 5.00677 4.47399 3.23435 -0.0363552 0.0090857 0.108233 0 -0.516644 0.007052 
403 2 0 1 1.57489 8.31507 6.46166 0.621904 0.0124728 -0.0206819 -0.0252886 -0.00389362 0.0436806 3.29089e-06 
766 1 1 0 0 4.10196 2.48098 0.076196 0.0297958 0.0169151 -0.0403027 0 -0.477489 0.00150419 
322 1 1 0 0 4.90418 9.73864 3.12769 -0.0460445 0.00457211 0.0595179 0 -0.509022 0.00305511 
20 2 0 -1 1.61525 2.18648 7.77968 4.75271 0.0359089 -0.0266268 0.048097 -0.00916839 0.030844 1.16651e-05 
19 2 0 1 1.61529 2.18652 7.77972 4.75268 0.034788 -0.0267071 0.0502409 -0.0120539 0.0308365 1.21498e-05 
214 1 1 0 0 7.04966 4.80246 4.66128 -0.0209094 -0.00481245 0.0544873 0 -0.487519 0.00184339 
495 2 0 1 1.6099 8.22816 9.80699 1.54045 0.0175366 0.0277526 0.0269092 0.00757701 0.0426965 4.91931e-06 
496 2 0 -1 1.61028 8.22824 9.8071 1.54055 0.0187558 0.0290924 0.0290844 0.015387 0.0426022 5.92381e-06 
493 1 1 0 0 7.82988 9.2748 1.14158 0.0639655 -0.0268897 0.0412351 0 -0.484573 0.00350214 
745 1 1 0 0 9.69684 0.579806 1.28871 -0.0340207 0.0384943 0.0676094 0 -0.497752 0.00387589 
187 2 0 1 1.60955 6.02752 0.641587 2.59401 -0.0465804 0.0855605 0.0108917 0.0122466 0.0267967 2.59216e-05 
188 2 0 -1 1.60999 6.02748 0.641582 2.59403 -0.0457349 0.0832043 0.0108691 0.00431898 0.0266825 2.43892e-05 
414 1 1 0 0 5.38927 5.09323 0.526433 0.0324225 0.0118095 0.0240593 0 -0.472588 0.000951217 
624 2 0 -1 1.60046 5.37286 9.13342 -0.217642 -0.0104973 -0.00515935 -0.0638326 0.00487658 0.0303786 1.1277e-05 
623 2 0 1 1.60035 5.37283 9.13337 -0.217701 -0.0115824 -0.00396782 -0.0631777 0.00770648 0.0304032 1.11613e-05 
542 1 1 0 0 1.42646 5.65607 7.53292 0.0627523 -0.0913935 0.131717 0 -0.488401 0.015933 
687 2 0 1 1.61139 4.82365 8.77327 6.87583 0.00105414 -0.0388294 0.031696 -0.00562854 0.026309 6.76534e-06 
686 1 1 0 0 5.26714 8.87379 7.24044 0.0188214 -0.0834815 0.0262758 0 -0.503518 0.00430785 
685 1 1 0 0 4.21679 8.66058 6.40659 -0.0162413 -0.0210127 0.063427 0 -0.479531 0.00254171 
37 1 1 0 0 7.23768 6.98738 7.29953 0.0506679 -0.0127662 0.0790979 0 -0.491364 0.00483081 
38 1 1 0 0 8.17406 6.08189 6.93294 0.0142396 -0.0261519 0.035275 0 -0.500688 0.00114553 
39 2 0 1 1.60941 7.72419 6.52281 7.11638 0.0219384 -0.0237431 0.0538134 -0.0143655 0.0298733 1.09209e-05 
40 2 0 -1 1.60907 7.724 6.52294 7.11649 0.0216502 -0.0225274 0.0536513 -0.0104136 0.0299551 1.04951e-05 
523 2 0 1 1.56296 10.0807 1.80971 4.95246 0.00602852 -0.0234909 -0.0302747 0.0112643 0.0415115 4.26599e-06 
805 1 1 0 0 3.30688 8.69889 10.1353 -0.0890619 -0.0276261 -0.022041 0 -0.497695 0.00493529 
524 2 0 -1 1.56323 10.0807 1.80969 4.95236 0.00540737 -0.0226906 -0.0322183 0.00385428 0.0414291 4.24832e-06 
218 1 1 0 0 6.54245 3.86412 9.91818 -0.0364997 0.0492732 -0.00469132 0 -0.503189 0.00203307 
541 1 1 0 0 0.33297 6.48172 7.56242 0.0854592 -0.0545127 0.0319727 0 -0.508783 0.00607281 
175 2 0 1 1.5969 3.21783 5.01452 9.94559 0.00738727 -0.0136288 -0.0298982 -0.0106962 0.0456228 3.25311e-06 
201 1 1 0 0 4.22892 4.7275 6.19005 0.0213609 0.0585652 -0.0165229 0 -0.50424 0.00223577 
202 1 1 0 0 4.21719 5.96799 6.71776 0.000501912 0.0486603 0.00397035 0 -0.504562 0.00128144 
203 2 0 1 1.59649 4.21393 5.33094 6.48286 0.012196 0.0423657 -0.00331162 0.000466586 0.0400789 5.21214e-06 
204 2 0 -1 1.59637 4.21396 5.33105 6.48295 0.0115919 0.0437493 -0.00298849 0.00279718 0.0400994 5.5013e-06 
543 2 0 1 1.61405 0.836327 6.12377 7.53709 0.0424429 -0.0541272 0.0630569 -0.00202365 0.0322708 2.32257e-05 
789 1 1 0 0 7.44178 0.90122 9.8354 0.0222492 -0.0186688 0.0191467 0 -0.505647 0.000650518 
728 2 0 -1 1.58366 9.71227 3.24802 8.17867 0.0393169 -0.00845587 -0.0119701 -0.00589729 0.0506817 4.76407e-06 
217 1 1 0 0 6.31719 3.7764 8.60214 0.0602889 0.0783526 -0.0260783 0 -0.507861 0.00561955 
154 1 1 0 0 6.64113 8.95336 10.1555 0.0312058 0.0329588 0.0453977 0 -0.474307 0.00221527 
17 1 1 0 0 1.9037 7.4796 5.28847 0.0442014 0.0227592 0.060036 0 -0.499116 0.0032662 
409 1 1 0 0 0.674627 2.43682 7.82966 0.0402692 0.0621378 0.00658874 0 -0.518934 0.00297058 
410 1 1 0 0 1.68323 2.79552 7.0701 0.0834794 -0.00509653 0.0679387 0 -0.518563 0.00624123 
411 2 0 1 1.56831 1.16926 2.65554 7.44749 0.060356 0.0300036 0.0371171 -0.00584464 0.0603807 1.58556e-05 
412 2 0 -1 1.56835 1.16905 2.65535 7.4476 0.0627888 0.0309435 0.036427 -0.00709603 0.0603711 1.67042e-05 
465 1 1 0 0 3.61495 0.927792 8.11039 -0.0173607 -0.0622834 0.00370324 0 -0.508211 0.00225467 
466 1 1 0 0 4.36003 1.83106 8.7437 -0.0497133 -0.030691 0.00185533 0 -0.517074 0.0018367 
467 2 0 1 1.57909 4.01714 1.38822 8.43478 -0.011806 -0.0345327 0.00200791 -0.00978288 0.0505659 3.75353e-06 
468 2 0 -1 1.57883 4.01713 1.38824 8.43482 -0.0111928 -0.0336642 0.00254812 -0.00249933 0.050634 3.38567e-06 
808 2 0 -1 1.59224 2.71111 8.86491 9.8403 -0.0684134 -0.03907 -0.0237342 -0.00210991 0.0448333 1.80611e-05 
807 2 0 1 1.59212 2.71093 8.86494 9.8402 -0.0726544 -0.037402 -0.0262951 -0.00267286 0.0448601 1.96632e-05 
725 1 1 0 0 9.58791 2.81979 7.69778 0.0559902 -0.0171687 -0.0427988 0 -0.509328 0.00282828 
220 2 0 -1 1.5784 6.38146 3.80447 9.27153 0.00371625 0.0669649 -0.00449143 -0.00463552 0.0446064 1.20907e-05 
688 2 0 -1 1.61159 4.82344 8.77325 6.87565 7.33477e-06 -0.0393163 0.0304937 -0.00206475 0.0262557 6.60965e-06 
727 2 0 1 1.58393 9.71224 3.24781 8.17847 0.0400412 -0.00790687 -0.0102681 -0.00125775 0.0506113 4.72607e-06 
219 2 0 1 1.57838 6.38145 3.80445 9.27098 0.00367692 0.0674946 -0.0057086 -0.00571206 0.0446159 1.23352e-05 
581 1 1 0 0 6.37397 1.3063 6.83564 0.0240118 0.00558375 -0.0111686 0 -0.503765 0.000393748 
582 1 1 0 0 7.32984 1.85909 6.05718 -0.0559762 0.0807381 -0.0555057 0 -0.499709 0.00684458 
583 2 0 1 1.58089 6.84722 1.58232 6.44461 -0.0045292 0.0420363 -0.0289961 0.000788644 0.0383358 7.00953e-06 
584 2 0 -1 1.58088 6.8471 1.58225 6.44474 -0.00522721 0.0412347 -0.0281989 -0.00669859 0.0383289 6.8166e-06 
726 1 1 0 0 9.87186 3.70097 8.62627 0.0302693 -0.0234681 -0.0276181 0 -0.514033 0.0011986 
806 1 1 0 0 2.17085 9.04499 9.52822 -0.0816686 -0.0305857 -0.0338335 0 -0.5175 0.00470356 
544 2 0 -1 1.61369 0.836513 6.12357 7.53711 0.0400344 -0.05094 0.0630343 0.00234122 0.032361 2.17983e-05 
477 1 1 0 0 8.94132 9.24155 5.93162 0.00817914 -0.0120671 0.0312201 0 -0.490145 0.000638187 
345 1 1 0 0 9.22323 0.236423 7.83673 0.0445126 -0.0168784 0.000787939 0 -0.516478 0.00121856 
176 2 0 -1 1.59674 3.21756 5.01477 9.94583 0.00663146 -0.0134691 -0.0298641 -0.01179 0.0456607 3.25708e-06 
173 1 1 0 0 3.73652 4.68082 9.70715 -0.00581654 0.0140718 -0.0251615 0 -0.514126 0.000464955 
256 2 0 -1 1.64869 1.53325 0.879366 14.3582 0.0612902 0.00687014 -0.0562679 -0.00109118 0.0201699 1.85868e-05 
365 1 1 0 0 6.27482 3.21542 14.7235 0.0649101 0.020616 -0.000237392 0 -0.487957 0.00249338 
637 1 1 0 0 8.89056 3.00703 12.9567 -0.0409574 -0.0302985 0.0240076 0 -0.500995 0.00170505 
639 2 0 1 1.5815 8.65412 2.61434 12.4699 -0.0344698 -0.0138679 0.019352 -0.00784608 0.0411362 4.80266e-06 
638 1 1 0 0 8.4908 2.17956 11.9983 -0.00733859 -0.00298374 -0.00758265 0 -0.505118 6.46429e-05 
700 2 0 -1 1.61866 1.44965 2.18212 10.883 -0.0322759 0.0108891 -0.0134697 -0.00331366 0.0471354 3.59961e-06 
803 2 0 1 1.66173 6.14159 9.97726 14.3805 0.0156524 0.065499 0.0677081 3.58589e-05 0.00332638 2.43165e-05 
255 2 0 1 1.64866 1.53319 0.879332 14.3582 0.0612298 0.00715252 -0.0568763 0.00098267 0.0201781 1.87607e-05 
156 2 0 -1 1.65217 6.21812 8.47687 10.4339 0.0120565 0.0376535 0.0327259 0.00937899 0.00145418 7.19964e-06 
155 2 0 1 1.65207 6.21814 8.4769 10.4339 0.0132226 0.0403172 0.0309741 0.0118076 0.00147586 7.63739e-06 
254 1 1 0 0 1.45433 0.212459 14.0752 0.101996 -0.0017028 -0.0416422 0 -0.488251 0.00652592 
571 2 0 1 1.57186 8.75503 5.58939 10.6303 -0.0330743 -0.0299038 -0.0184638 -0.00970312 0.0461364 6.39856e-06 
816 2 0 -1 1.59631 9.8887 9.30631 11.9495 -0.0542421 0.0575563 -0.0501925 -0.00370335 0.0413484 2.34233e-05 
245 1 1 0 0 2.62012 8.0651 12.4418 -0.0658943 0.0462137 0.045385 0 -0.49585 0.00458939 
246 1 1 0 0 3.45259 7.57967 13.3592 -0.0399385 -0.096055 -0.0431356 0 -0.50128 0.00681742 
247 2 0 1 1.5652 3.04831 7.82924 12.8963 -0.0506218 -0.0217199 -0.0076287 0.000160356 0.0393303 8.24603e-06 
248 2 0 -1 1.56557 3.04832 7.82931 12.8963 -0.0504252 -0.0223913 -0.00664205 -0.00645365 0.0392286 8.31772e-06 
570 1 1 0 0 9.30132 5.40105 10.8912 -0.0468641 -0.0481275 -0.0685375 0 -0.511871 0.0049508 
697 1 1 0 0 1.84217 2.40675 10.2863 -0.00572977 -0.0391945 0.000764695 0 -0.502811 0.000843756 
41 1 1 0 0 9.61507 9.75828 15.2371 0.037942 0.0316777 0.0465469 0 -0.508233 0.00247795 
785 1 1 0 0 8.12963 7.18338 14.506 -0.0408318 0.0482626 0.0602893 0 -0.508151 0.00410223 
273 1 1 0 0 4.81821 1.37415 12.6807 0.0158183 0.0434626 -0.00206291 0 -0.496671 0.00115223 
274 1 1 0 0 4.84481 2.70922 12.3904 -0.0328442 0.0374285 0.0318908 0 -0.502081 0.00187963 
275 2 0 1 1.61554 4.85201 2.07001 12.5541 -0.00720878 0.0397121 0.0218508 -0.00230676 0.0322979 5.62741e-06 
276 2 0 -1 1.6155 4.85206 2.06979 12.5542 -0.00771439 0.0406288 0.0206662 -0.00150573 0.0323084 5.70349e-06 
640 2 0 -1 1.58095 8.65408 2.61444 12.4698 -0.0359552 -0.0153832 0.0171533 -0.0107443 0.0412771 5.09352e-06 
699 2 0 1 1.6186 1.44951 2.18209 10.8832 -0.0321761 0.011328 -0.0134798 -0.00191482 0.0471486 3.59456e-06 
787 2 0 1 1.59358 8.62968 6.89901 14.2398 -0.0305935 0.0386686 0.0232465 0.00645108 0.0386838 8.00685e-06 
572 2 0 -1 1.57211 8.7549 5.58961 10.6301 -0.0342232 -0.030366 -0.018547 -0.00609645 0.046071 6.57326e-06 
813 1 1 0 0 9.40948 9.02977 12.3584 -0.0241953 0.0514591 -0.0368268 0 -0.504532 0.00246718 
790 1 1 0 0 6.92814 -0.258075 10.2359 0.0122038 -0.0313943 -0.0533375 0 -0.494994 0.00213915 
792 2 0 -1 1.59078 7.21808 0.339894 10.0374 0.0164663 -0.00746334 -0.028937 0.0065021 0.0368928 3.18878e-06 
815 2 0 1 1.59639 9.88867 9.30639 11.9494 -0.0573168 0.0568118 -0.0475495 0.00168981 0.0413241 2.34003e-05 
253 1 1 0 0 1.62501 1.50695 14.5995 0.0305601 0.0187031 -0.0786825 0 -0.495785 0.00401802 
802 1 1 0 0 5.99312 10.1084 13.736 0.0157357 0.016855 0.0432859 0 -0.481937 0.00129301 
801 1 1 0 0 6.27866 9.7996 15.0782 -0.00648826 0.0897103 0.0546801 0 -0.469132 0.00595605 
421 1 1 0 0 2.28119 4.19937 13.301 0.0306979 0.0123192 0.0762572 0 -0.506116 0.00371411 
422 1 1 0 0 2.34014 4.96704 14.4064 -0.00740775 -0.0202345 0.0890637 0 -0.498773 0.00451364 
423 2 0 1 1.60175 2.32741 4.57871 13.8419 0.0204431 -0.0186879 0.0614672 -0.00837541 0.0358022 1.22602e-05 
424 2 0 -1 1.60165 2.32747 4.57883 13.842 0.0200445 -0.0191818 0.0608568 -0.00681511 0.0358248 1.20205e-05 
513 1 1 0 0 5.04642 5.50825 12.429 0.035192 -0.033 -0.0327466 0 -0.490599 0.00182758 
514 1 1 0 0 6.40833 5.4528 12.4964 0.0349987 0.0013742 0.0822078 0 -0.493479 0.00429231 
515 2 0 1 1.59588 5.72352 5.48324 12.4635 0.00788428 -0.0101779 0.0293445 -0.00223022 0.025341 2.74798e-06 
516 2 0 -1 1.59599 5.7241 5.48318 12.4636 0.006639 -0.0105905 0.029036 0.00154947 0.0253179 2.66942e-06 
698 1 1 0 0 1.13519 2.01613 11.4083 -0.0668732 0.0681513 -0.00655839 0 -0.525782 0.00492378 
153 1 1 0 0 5.83494 7.98943 10.7504 -0.0196874 0.0339928 0.013906 0 -0.473609 0.000933449 
804 2 0 -1 1.66133 6.14167 9.97718 14.3808 0.0155933 0.0654319 0.0687718 0.00057241 0.00341645 2.46759e-05 
569 1 1 0 0 8.14894 5.76291 10.3486 -0.0583531 -0.00929149 0.00978101 0 -0.500468 0.00192824 
791 2 0 1 1.59067 7.21811 0.339859 10.0374 0.0185186 -0.00502818 -0.029894 0.00305116 0.0369249 3.38331e-06 
786 1 1 0 0 9.23118 6.59848 14.0252 -0.0603563 0.0531337 0.00673987 0 -0.495065 0.00350027 
788 2 0 -1 1.59391 8.62974 6.89905 14.2398 -0.0314212 0.0395958 0.022972 0.00791812 0.0386022 8.34553e-06 
182 1 1 0 0 0.847673 6.32276 11.9153 0.0855659 0.0212274 -0.0922359 0 -0.489167 0.00875113 
609 1 1 0 0 0.203806 9.90089 12.9253 0.0250082 -0.0221658 -0.00213785 0 -0.493578 0.000602758 
174 1 1 0 0 2.65372 5.36546 10.1631 -0.0159619 -0.0388003 -0.0204079 0 -0.507526 0.00117011 
646 1 1 0 0 6.92967 7.67458 16.9241 0.0649021 -0.0381595 -0.0454956 0 -0.513774 0.00415973 
817 1 1 0 0 9.60387 4.94555 17.8867 -0.029879 0.00396392 -0.0150947 0 -0.482287 0.000610831 
350 1 1 0 0 0.854914 4.67986 17.1033 -0.0160294 0.00253629 -0.0745743 0 -0.535114 0.00313109 
351 2 0 1 1.53724 0.36392 4.50471 16.735 -0.00978283 -0.0204986 -0.0569697 -0.00983277 0.0790627 1.0223e-05 
784 2 0 -1 1.57219 2.69758 9.67989 15.8218 0.0311079 0.0388688 -0.0634989 -6.79166e-05 0.0533308 1.73601e-05 
84 2 0 -1 1.60685 4.66359 6.64266 15.7043 0.0569185 0.0175554 -0.0287811 -0.0113155 0.0218999 1.19251e-05 
820 2 0 -1 1.58395 8.86303 4.70321 17.8461 -0.0229885 -0.00126739 -0.0352565 -0.0168003 0.0392641 5.2923e-06 
819 2 0 1 1.58407 8.86301 4.70319 17.8461 -0.021502 -0.00158023 -0.0347837 -0.0159814 0.0392282 4.97634e-06 
818 1 1 0 0 8.32957 4.53558 17.8395 -0.0140293 -0.00874004 -0.0962532 0 -0.518392 0.00512711 
837 1 1 0 0 -0.322121 1.26667 19.3095 -0.0699771 -0.0781186 -0.0465967 0 -0.509628 0.00707987 
763 2 0 1 1.56542 6.51581 1.83517 18.5465 0.056602 -0.0152493 -0.0103255 -0.000991791 0.0452637 9.44897e-06 
370 1 1 0 0 9.33085 1.04716 16.5161 -0.0541729 0.0878441 -0.0121113 0 -0.522299 0.00580448 
369 1 1 0 0 8.54981 1.2541 15.4606 0.00645779 0.0699925 -0.0566231 0 -0.509788 0.00437935 
645 1 1 0 0 7.93263 8.29693 17.5568 -0.022326 0.061018 -0.0414714 0 -0.502243 0.00319388 
722 1 1 0 0 4.62218 0.914308 15.99 -0.0313099 0.0217749 0.0021186 0 -0.505733 0.00078426 
352 2 0 -1 1.53682 0.364243 4.50497 16.7353 -0.00991178 -0.0203615 -0.0575021 -0.00933141 0.0791922 1.03581e-05 
371 2 0 1 1.55905 8.95469 1.15313 15.9976 -0.0215005 0.0769028 -0.0117357 -0.00858707 0.0571088 1.75167e-05 
366 1 1 0 0 6.87271 3.57636 15.8919 0.0546792 0.0081238 -0.00277392 0 -0.497901 0.0016468 
367 2 0 1 1.60134 6.57591 3.41408 15.3558 0.0568219 0.025532 -0.0115847 -0.00929469 0.0278338 1.0878e-05 
368 2 0 -1 1.60138 6.57599 3.41417 15.356 0.0565622 0.0235027 -0.0149065 -0.0138522 0.0278198 1.09798e-05 
781 1 1 0 0 2.50071 9.20558 15.5055 0.0465254 0.0127125 -0.0328461 0 -0.523061 0.00183042 
840 2 0 -1 1.56999 0.269046 1.09192 19.4917 -0.0331346 -0.0303995 0.00707168 0.0080341 0.0441809 5.65403e-06 
782 1 1 0 0 2.9405 10.2664 16.174 0.0231172 0.063325 -0.10085 0 -0.502102 0.00791019 
372 2 0 -1 1.55888 8.95474 1.15316 15.9976 -0.0185554 0.0739867 -0.00782795 -0.00175387 0.0571565 1.56837e-05 
415 2 0 1 1.59868 5.46958 4.95104 19.9322 0.0444164 0.0184 -0.0201597 0.01141 0.0214089 7.50714e-06 
648 2 0 -1 1.57962 7.37551 7.97991 17.2432 0.00966083 0.00543272 -0.0630518 -0.0140031 0.0470848 1.13202e-05 
647 2 0 1 1.57938 7.3757 7.98012 17.2433 0.00835181 0.00442521 -0.0629905 -0.0142717 0.0471454 1.12254e-05 
589 1 1 0 0 3.60091 3.402 16.9525 -0.0228603 -0.0215257 -0.0669374 0 -0.496101 0.00293857 
590 1 1 0 0 2.65465 2.57909 17.485 -0.0066485 0.0153908 0.00954654 0 -0.481248 0.000200085 
591 2 0 1 1.60935 3.17444 3.00619 17.2255 -0.014072 0.00528348 -0.0452332 -0.00743973 0.0231991 6.16878e-06 
592 2 0 -1 1.60925 3.17438 3.00603 17.2256 -0.0129649 0.00651269 -0.0451879 -0.00798122 0.0232234 6.13339e-06 
617 1 1 0 0 2.21336 7.72852 17.9041 -0.0520921 -0.0532577 -0.1102 0 -0.493866 0.00951145 
618 1 1 0 0 2.52429 6.61777 18.6182 -0.0204522 0.0255958 -0.0133885 0 -0.495121 0.000673388 
619 2 0 1 1.59597 2.37771 7.16085 18.2276 -0.0408542 0.00114229 -0.0632249 0.0113776 0.0300818 1.53716e-05 
620 2 0 -1 1.59597 2.37773 7.16105 18.2276 -0.0397939 -0.00385805 -0.0608161 0.00362249 0.0300824 1.41504e-05 
82 1 1 0 0 4.19967 6.81143 16.2201 0.0511758 -0.0452657 -0.0526129 0 -0.485687 0.00399728 
416 2 0 -1 1.59885 5.46961 4.95099 19.9323 0.0439247 0.0189076 -0.0207961 0.00896205 0.0213728 7.41159e-06 
44 2 0 -1 1.59767 9.66507 10.0867 15.8036 -0.002657 0.0404763 0.0479212 -0.0166443 0.0403967 1.10646e-05 
83 2 0 1 1.6066 4.6636 6.64265 15.7044 0.0573158 0.0172832 -0.0309736 -0.00679647 0.0219561 1.22064e-05 
81 1 1 0 0 5.09037 6.49689 15.2105 0.0910804 0.064383 -0.036791 0 -0.491092 0.00741521 
838 1 1 0 0 0.913615 0.84206 19.608 -0.0447573 0.0376836 0.064372 0 -0.495007 0.00406767 
43 2 0 1 1.59789 9.66503 10.0867 15.8036 -0.00268914 0.0400376 0.0475723 -0.0160098 0.0403405 1.08406e-05 
70 1 1 0 0 9.77975 8.78921 19.4706 -0.0194991 0.0384793 -0.0233912 0 -0.498898 0.00129443 
839 2 0 1 1.5696 0.26879 1.09203 19.4917 -0.0347084 -0.0306719 0.00497316 0.0138076 0.0442595 6.16788e-06 
764 2 0 -1 1.56507 6.51583 1.83518 18.5465 0.0570643 -0.0162853 -0.00632362 0.00135792 0.0453645 9.50028e-06 
761 1 1 0 0 6.40757 1.72266 17.8418 0.0640666 0.0351279 0.0110963 0 -0.496605 0.00293591 
762 1 1 0 0 6.61256 1.92246 19.1406 0.0639599 -0.0493095 0.00300395 0 -0.514594 0.00351093 
413 1 1 0 0 5.54685 4.78277 19.3653 0.0242672 0.025114 0.0122604 0 -0.499313 0.000736406 
783 2 0 1 1.57225 2.69742 9.6795 15.8216 0.0322533 0.0400624 -0.0620043 -0.00131148 0.0533126 1.73081e-05 
621 1 1 0 0 5.40393 8.56492 19.5734 -0.0199997 0.0254823 -0.0679477 0 -0.500208 0.00304589 
723 2 0 1 1.56966 4.86661 0.286875 16.1431 -0.0293798 0.00170754 -0.0147958 0.00364308 0.0500698 2.91963e-06 
89 1 1 0 0 0.635451 5.02132 20.2591 -0.0415542 -0.00532459 0.0254777 0 -0.49765 0.00129239 
381 1 1 0 0 10.0752 3.56775 15.4013 0.048317 0.035344 -0.00256684 0 -0.487849 0.00192999 
724 2 0 -1 1.56958 4.86649 0.28704 16.143 -0.0300099 0.00648383 -0.0163956 0.010406 0.0500877 3.44679e-06 
747 2 0 1 1.57812 9.57168 20.5962 1.94778 -0.00561996 0.0426041 0.0616649 -0.00425683 0.0363374 1.50996e-05 
628 2 0 -1 1.58054 4.37856 18.7489 4.91003 -0.00171969 -0.00384796 0.0322707 0.00527924 0.0454466 2.87991e-06 
627 2 0 1 1.58095 4.37865 18.7492 4.90982 -0.00150614 -0.00445237 0.0309255 0.00147251 0.0453305 2.61338e-06 
63 2 0 1 1.55533 9.80852 15.4389 3.63084 -0.000887988 -0.0184343 0.0192038 0.000282392 0.0589885 1.89172e-06 
748 2 0 -1 1.57806 9.57185 20.5962 1.94733 -0.00481669 0.0416009 0.0600211 -0.00859465 0.0363673 1.44301e-05 
64 2 0 -1 1.5548 9.80853 15.4389 3.63076 -0.000654904 -0.0186384 0.0198564 0.000358319 0.0591358 1.979e-06 
321 1 1 0 0 4.45369 10.9344 3.52338 -0.0523623 0.00504775 0.0705473 0 -0.497446 0.00416292 
61 1 1 0 0 9.42867 15.4736 3.05386 -0.00627996 0.00213677 0.00724057 0 -0.503352 5.18359e-05 
323 2 0 1 1.59912 4.67045 10.3129 3.30147 -0.0318978 -0.013047 0.0601768 -0.000102963 0.0387207 1.28227e-05 
324 2 0 -1 1.59876 4.67034 10.3134 3.30157 -0.032331 -0.0102534 0.0594622 0.00233008 0.0388062 1.25062e-05 
385 1 1 0 0 5.09191 17.0995 2.79329 -0.00970422 0.0219488 -0.0224194 0 -0.474685 0.000579777 
386 1 1 0 0 4.52041 16.09 2.10754 -0.0873181 -0.0118052 0.0825427 0 -0.498141 0.00783596 
387 2 0 1 1.59404 4.84007 16.5579 2.42547 -0.0392413 0.00451975 0.0220112 0.00159876 0.023236 5.45743e-06 
388 2 0 -1 1.59437 4.84034 16.5583 2.42579 -0.0357022 0.00641739 0.0232288 -0.000143681 0.0231451 4.94736e-06 
389 1 1 0 0 5.0644 12.6012 0.211602 0.0354779 -0.10313 -0.0677298 0 -0.511288 0.00885983 
390 1 1 0 0 4.2434 12.519 1.22767 0.0028439 -0.0881901 -0.0723987 0 -0.508968 0.00700278 
391 2 0 1 1.56253 4.66182 12.5417 0.694895 0.010465 -0.096822 -0.0665047 6.95842e-06 0.051852 3.70818e-05 
392 2 0 -1 1.56262 4.66201 12.5417 0.694415 0.0136102 -0.096508 -0.0683481 0.00602581 0.0518297 3.78573e-05 
405 1 1 0 0 7.81288 18.1156 4.93339 0.033359 -0.051164 0.00840282 0 -0.518776 0.00204334 
696 2 0 -1 1.63383 0.139679 16.0374 0.602676 -0.00700326 -0.0423625 0.0652303 -0.00122725 0.0258059 1.62646e-05 
407 2 0 1 1.58072 7.87206 18.7804 4.92806 0.0171957 -0.0234408 0.0347578 -0.00415292 0.056063 5.50939e-06 
408 2 0 -1 1.58055 7.87207 18.7806 4.92805 0.0169359 -0.0268884 0.0340785 -0.00387739 0.0561028 5.81931e-06 
433 1 1 0 0 7.09304 12.8889 2.33199 0.0351221 0.0086295 -0.0609436 0 -0.50581 0.00269967 
434 1 1 0 0 7.31758 14.0749 2.90572 -0.0311764 -0.0325606 0.0552277 0 -0.497197 0.00273198 
435 2 0 1 1.58663 7.22301 13.4857 2.60776 0.000775141 -0.0172107 0.00247951 -0.00506788 0.0393649 8.59181e-07 
436 2 0 -1 1.58635 7.22291 13.4853 2.60772 0.000602312 -0.0184414 0.00132349 0.00295506 0.0394297 9.29913e-07 
99 2 0 1 1.6262 1.18537 17.0805 4.61548 -0.0323173 -0.0184335 -0.0196805 0.0104346 0.0308817 4.94139e-06 
442 1 1 0 0 1.02601 10.7705 1.99634 -0.065038 -0.0302098 0.0913375 0 -0.506048 0.00724895 
443 2 0 1 1.58211 1.46355 10.3386 1.74861 -0.0189742 -0.0129481 0.100002 0.000618551 0.0421269 2.80732e-05 
444 2 0 -1 1.58178 1.46413 10.3381 1.74816 -0.0185304 -0.0132587 0.0997852 -0.000982787 0.0422125 2.79362e-05 
453 1 1 0 0 7.44322 17.058 1.89022 0.0521919 0.0702252 0.154658 0 -0.490529 0.016973 
454 1 1 0 0 8.52481 17.6195 1.33294 0.0211988 0.0134356 0.0605543 0 -0.495768 0.00230972 
455 2 0 1 1.58936 7.99415 17.3017 1.61261 0.0349852 0.043554 0.0981955 -0.00778256 0.0313366 3.41535e-05 
456 2 0 -1 1.58947 7.99403 17.3017 1.61265 0.0374293 0.0439358 0.0977374 0.0015194 0.0313041 3.43586e-05 
325 1 1 0 0 6.52328 15.6933 4.79584 -0.0108545 -0.0177175 0.0451595 0 -0.523232 0.00132835 
485 1 1 0 0 1.89135 14.0603 2.50687 -0.0414792 0.0436522 0.0564915 0 -0.480168 0.00366467 
486 1 1 0 0 2.60503 13.7377 3.67076 0.0125593 0.123788 0.0599561 0 -0.468999 0.0102543 
487 2 0 1 1.6447 2.23704 13.9008 3.06592 -0.0306474 0.073388 0.0378663 -0.00171665 0.00267058 2.06945e-05 
488 2 0 -1 1.6451 2.23696 13.9009 3.06562 -0.0322257 0.0747598 0.0353429 0.00301362 0.00257094 2.10207e-05 
489 1 1 0 0 1.9058 18.9635 1.80704 0.0200353 -0.0153963 -0.00862755 0 -0.511262 0.000383219 
490 1 1 0 0 3.24415 18.7092 1.53066 0.0170798 -0.0293064 -0.0752555 0 -0.487721 0.00366287 
491 2 0 1 1.62647 2.52396 18.8744 1.65682 0.019936 -0.0260807 -0.0385698 0.00475864 0.0323363 6.88541e-06 
492 2 0 -1 1.62654 2.5239 18.8744 1.65677 0.0177554 -0.0256431 -0.0387609 -0.000329295 0.0323278 6.60025e-06 
693 1 1 0 0 -0.136801 15.5107 0.896996 -0.00890459 -0.0246322 0.128628 0 -0.497028 0.00926261 
605 1 1 0 0 9.43069 13.4331 0.655294 -0.00577828 0.0224133 0.0140174 0 -0.497899 0.000393613 
100 2 0 -1 1.62608 1.18554 17.0803 4.61493 -0.0345297 -0.0174894 -0.016587 0.0152773 0.0309152 5.19515e-06 
98 1 1 0 0 1.53798 16.869 4.03285 -0.0427215 -0.0125173 -0.0563341 0 -0.496698 0.00277127 
441 1 1 0 0 1.89554 9.90214 1.49786 0.00456266 0.0108036 0.118005 0 -0.505787 0.00755945 
406 1 1 0 0 7.93233 19.4422 5.00664 0.0140056 -0.0540573 0.0301961 0 -0.515202 0.00216642 
694 1 1 0 0 0.393416 16.625 0.288389 -0.00601189 -0.0655865 0.0296497 0 -0.491379 0.00280433 
626 1 1 0 0 4.51685 19.3574 4.61392 -0.00780985 -0.0138027 0.0058119 0 -0.507596 0.000153356 
695 2 0 1 1.63355 0.139745 16.0373 0.602702 -0.00553366 -0.0393175 0.0631856 0.00210782 0.0258593 1.4858e-05 
185 1 1 0 0 6.43361 20.2628 2.52222 -0.0643556 0.0736603 0.0162659 0 -0.496553 0.00528525 
746 1 1 0 0 9.45082 20.5027 2.59526 0.00382618 0.0333663 0.0594479 0 -0.499482 0.00250607 
494 1 1 0 0 8.50308 10.2128 1.89947 -0.0361287 0.0666514 0.0122427 0 -0.526163 0.00317025 
49 1 1 0 0 2.02007 11.3048 4.95085 -0.114317 0.0151296 -0.059351 0 -0.486349 0.00904149 
50 1 1 0 0 2.45606 11.6941 6.18772 0.0487574 0.00505904 -0.106552 0 -0.501881 0.00739473 
51 2 0 1 1.61677 2.25293 11.518 5.58968 -0.0291732 0.0102801 -0.0874363 0.00489684 0.0277411 2.29842e-05 
52 2 0 -1 1.61628 2.25278 11.5179 5.58961 -0.0290532 0.0103859 -0.0878112 0.00280953 0.0278605 2.31145e-05 
65 1 1 0 0 9.74379 13.6526 5.81903 0.025421 -0.0158692 0.0230493 0 -0.50943 0.00076834 
67 2 0 1 1.58547 9.47411 13.6045 6.46366 -0.0235769 -0.0356784 0.00125727 0.00550553 0.0518074 4.94125e-06 
68 2 0 -1 1.58592 9.47426 13.6046 6.46336 -0.0242038 -0.0367028 0.00352136 0.000566395 0.0516848 5.18769e-06 
676 2 0 -1 1.57077 4.63912 11.7462 8.85084 0.0871478 -0.0426699 -0.0118842 0.00345489 0.0339378 2.55061e-05 
347 2 0 1 1.54608 9.65149 19.9799 7.55862 0.0209607 -0.0161773 -0.0344719 -0.00143911 0.0620601 5.04201e-06 
262 1 1 0 0 1.43555 18.6159 8.21264 -0.0389722 0.018176 0.00484656 0 -0.498105 0.00100667 
127 2 0 1 1.54644 8.8558 16.8149 7.66586 0.0449329 0.0313146 -0.0258279 0.00380705 0.0545106 9.80584e-06 
836 2 0 -1 1.60519 5.30467 17.9757 8.01677 -0.0517285 0.0226328 0.0329125 -0.00252101 0.03678 1.14019e-05 
835 2 0 1 1.60528 5.30474 17.9758 8.01657 -0.050482 0.023486 0.0322252 -0.00396597 0.0367562 1.10664e-05 
834 1 1 0 0 4.87156 17.865 8.53918 -0.0578103 -0.00705912 0.022182 0 -0.502339 0.0020878 
66 1 1 0 0 9.24509 13.5313 7.0536 -0.0708796 -0.0380876 -0.0209348 0 -0.522029 0.00371602 
520 2 0 -1 1.58014 6.56244 14.52 8.71038 -0.0388363 -0.0307648 -0.0224428 -0.00565966 0.0368829 7.95246e-06 
479 2 0 1 1.60012 8.34298 9.68079 5.86108 -0.0239794 -0.0420515 0.0405219 -0.00770366 0.0385887 1.07454e-05 
257 1 1 0 0 2.74113 15.4118 6.34878 0.000167094 0.000930579 0.00745416 0 -0.504757 3.03494e-05 
258 1 1 0 0 4.00164 15.2886 6.89036 0.0231679 -0.00838022 -0.0227172 0 -0.499909 0.000603699 
259 2 0 1 1.62611 3.3487 15.3101 6.60616 0.0127863 -0.00782469 -0.0128566 0.00644255 0.0344948 1.12293e-06 
260 2 0 -1 1.62615 3.34846 15.31 6.60607 0.00834273 -0.00790739 -0.0148084 0.00897182 0.0344838 1.098e-06 
261 1 1 0 0 2.41693 18.7626 7.25918 0.0179856 -0.0447364 0.0582337 0 -0.497291 0.00307264 
348 2 0 -1 1.546 9.65135 19.98 7.55874 0.0216369 -0.0164719 -0.0331614 -0.00951181 0.0620772 5.08491e-06 
263 2 0 1 1.61425 1.9156 18.7065 7.7181 -0.00337466 -0.0113984 0.0413383 0.00175936 0.0315297 4.93953e-06 