ITEM: TIMESTEP
10000
ITEM: NUMBER OF ATOMS
864
ITEM: BOX BOUNDS pp pp pp
0.0000000000000000e+00 2.0147801999999999e+01
0.0000000000000000e+00 2.0147801999999999e+01
0.0000000000000000e+00 2.0147801999999999e+01
ITEM: ATOMS id type q c_1a[1] c_1a[2] x y z vx vy vz c_1a[3] c_peatom c_keatom 
5 1 1 0 0 8.50463 2.17662 1.93766 0.0186182 -0.0626354 -0.0181663 0 -0.49786 0.00247266 
7 2 0 1 1.57375 8.46097 2.8664 1.86257 -0.0156284 -0.0402972 -0.0155355 0.00768158 0.0407836 5.74275e-06 
8 2 0 -1 1.57463 8.46093 2.86653 1.86249 -0.0158337 -0.0387157 -0.0162046 0.0148881 0.0405534 5.80867e-06 
33 1 1 0 0 4.03607 7.09241 2.61157 -0.0181312 0.0515541 -0.0485485 0 -0.512043 0.00287242 
34 1 1 0 0 2.90109 6.63198 2.12571 0.0115665 0.00711612 -0.06503 0 -0.498052 0.00237239 
35 2 0 1 1.55343 3.49686 6.89268 2.36516 -0.00557532 0.0309581 -0.0386136 0.00277887 0.048089 6.62952e-06 
36 2 0 -1 1.55275 3.49697 6.89287 2.36516 -0.00787662 0.0306477 -0.0397873 -0.00949727 0.0482793 7.07138e-06 
768 2 0 -1 1.61679 2.8298 2.2605 0.397934 -0.0262536 0.0165252 -0.0324999 -0.00387471 0.0170305 5.41243e-06 
767 2 0 1 1.61703 2.82974 2.26044 0.398011 -0.0250063 0.016706 -0.0350683 -0.00660914 0.016975 5.77803e-06 
766 1 1 0 0 3.09202 2.4052 -0.263168 -0.0417096 -0.0266406 -0.0479725 0 -0.477903 0.00255379 
185 1 1 0 0 6.20763 -0.14304 2.0169 0.026123 -0.0144022 0.0362353 0 -0.488274 0.00118414 
186 1 1 0 0 5.05785 0.364493 1.54301 0.00638905 -0.0251436 0.0646827 0 -0.482167 0.00261083 
187 2 0 1 1.58715 5.6395 0.130201 1.77725 0.00424833 -0.0258224 0.0427687 -0.00137453 0.0220869 6.70721e-06 
188 2 0 -1 1.58726 5.63936 0.130348 1.77711 0.00389499 -0.0259596 0.0414587 0.000876107 0.0220573 6.42202e-06 
189 1 1 0 0 4.87131 4.58553 2.29427 0.0508601 -0.0177891 -0.0175158 0 -0.492301 0.00172555 
213 1 1 0 0 7.65333 4.12143 4.31483 0.0244451 -0.0590969 0.0403158 0 -0.515822 0.00307231 
191 2 0 1 1.58006 5.30797 4.09751 2.06809 0.0624796 0.0255859 -0.0268553 0.00126259 0.0331877 1.40807e-05 
192 2 0 -1 1.58005 5.30784 4.09774 2.06816 0.0621775 0.0267925 -0.0269773 0.00321583 0.0331797 1.41838e-05 
233 1 1 0 0 6.65815 8.09291 3.5869 -0.0597176 -0.0521135 0.0459942 0 -0.505892 0.00451408 
234 1 1 0 0 6.55139 6.92784 4.2432 -0.0486623 -0.0544739 0.0472622 0 -0.509267 0.00406881 
235 2 0 1 1.56717 6.60091 7.4921 3.90352 -0.0416379 -0.027627 0.0346433 0.00718999 0.046332 9.9615e-06 
236 2 0 -1 1.56696 6.60082 7.49173 3.90369 -0.0411318 -0.0281253 0.035724 0.0106864 0.0463969 1.02517e-05 
216 2 0 -1 1.57874 7.82046 4.45246 4.82344 -0.00788284 -0.038848 0.0308804 0.00392744 0.0456614 6.76333e-06 
596 2 0 -1 1.59394 0.05827 8.20156 1.29082 -0.0520552 0.0688876 0.0159043 0.0115551 0.0385168 2.08204e-05 
441 1 1 0 0 3.07283 9.83863 1.57286 -0.0836989 0.0587902 -0.0617126 0 -0.502382 0.007671 
622 1 1 0 0 5.46372 9.33573 0.841414 -0.0751475 0.0195061 0.00129222 0 -0.504064 0.00324107 
215 2 0 1 1.57835 7.82034 4.45243 4.8233 -0.00836349 -0.0398935 0.0299872 0.00206074 0.0457625 6.83636e-06 
566 1 1 0 0 1.86505 4.71812 4.17054 0.00289943 0.0821297 0.0710423 0 -0.499786 0.0063435 
401 1 1 0 0 7.75359 6.43997 1.73357 0.0397108 0.00317254 0.0324877 0 -0.502236 0.00142046 
481 1 1 0 0 4.09177 2.39643 3.78992 0.0664047 0.00835033 -0.0327872 0 -0.491857 0.00298573 
746 1 1 0 0 9.2078 -0.17691 2.59941 0.0354274 -0.0432537 -0.018074 0 -0.502975 0.00185598 
494 1 1 0 0 9.07126 10.1963 2.55646 -0.0447572 0.126375 -0.0709164 0 -0.49737 0.0123654 
558 1 1 0 0 -0.0188108 1.31927 4.50022 -0.0421802 -0.0714009 -0.0678744 0 -0.490449 0.00617336 
565 1 1 0 0 1.20251 4.79772 3.01205 0.0260842 0.0351479 0.0528757 0 -0.498577 0.00253273 
560 2 0 -1 1.59057 0.316623 0.717352 4.69209 -0.0421572 -0.0677543 -0.087605 -0.00413074 0.0394577 3.74775e-05 
765 1 1 0 0 2.57632 2.15924 0.986296 -0.0130013 0.0326366 -0.0220869 0 -0.492224 0.000925672 
18 1 1 0 0 2.60366 8.35069 4.77586 0.0649844 -0.0114305 0.0712002 0 -0.487886 0.00506541 
594 1 1 0 0 0.517605 8.65952 1.15073 -0.0378071 0.0554192 -0.00722934 0 -0.509347 0.00244744 
567 2 0 1 1.57897 1.48621 4.76313 3.60445 0.0182992 0.0462585 0.0675561 -0.000552072 0.0375039 1.87684e-05 
6 1 1 0 0 8.48319 3.52281 1.79212 -0.0607735 -0.0514925 -0.0246641 0 -0.504864 0.00373772 
621 1 1 0 0 5.93286 8.14217 0.464006 -0.130703 -0.0189633 0.033048 0 -0.493705 0.00996359 
568 2 0 -1 1.57828 1.4861 4.76307 3.60434 0.0185872 0.0457568 0.0689079 -0.00171315 0.0376763 1.91707e-05 
623 2 0 1 1.58186 5.68854 8.77061 0.670133 -0.0867616 0.00314346 0.00403096 0.00447707 0.0371906 2.01815e-05 
624 2 0 -1 1.58237 5.68853 8.77061 0.670134 -0.0843396 -0.0020868 0.00215833 -0.00367404 0.0370563 1.90178e-05 
190 1 1 0 0 5.72384 3.64365 1.849 0.113444 0.0403098 -0.024944 0 -0.498777 0.00812604 
403 2 0 1 1.60065 8.14539 6.2479 1.20078 -0.0276749 0.00395922 -0.0200538 0.00886325 0.0375809 3.31343e-06 
402 1 1 0 0 8.51822 6.06415 0.648243 -0.0856924 -0.00174446 -0.0873662 0 -0.50224 0.00805204 
559 2 0 1 1.59026 0.316722 0.71721 4.69215 -0.0423761 -0.0657322 -0.0883497 -0.00317804 0.0395343 3.71426e-05 
404 2 0 -1 1.6008 8.14532 6.24796 1.20081 -0.0282498 0.00371549 -0.0194237 0.0175932 0.037554 3.78974e-06 
595 2 0 1 1.59361 0.0585737 8.2019 1.29071 -0.0485887 0.0714405 0.0151166 0.0113298 0.0385984 2.07699e-05 
496 2 0 -1 1.58218 8.52765 10.0639 2.04711 -0.0255338 0.0942471 -0.0818011 0.022474 0.0548231 4.42753e-05 
495 2 0 1 1.58192 8.52771 10.0639 2.04706 -0.0240058 0.0965677 -0.0794836 0.01406 0.0548953 4.36428e-05 
493 1 1 0 0 8.11928 9.93174 1.6257 -0.0167338 0.0941928 -0.11316 0 -0.532596 0.0118034 
484 2 0 -1 1.59895 3.74957 2.2259 4.38302 0.088658 -0.0106066 -0.0271183 0.00100777 0.0319196 2.32217e-05 
483 2 0 1 1.59906 3.74963 2.226 4.38286 0.0886563 -0.00910606 -0.0286937 0.00944352 0.031897 2.35528e-05 
89 1 1 0 0 0.93638 5.89847 0.355409 0.00785762 -0.0525685 0.0393169 0 -0.49374 0.00234965 
542 1 1 0 0 0.590069 6.37419 7.75052 0.0201141 -0.0232634 -0.00248571 0 -0.50931 0.00051172 
687 2 0 1 1.55155 5.27369 9.27493 7.33383 0.0385419 -0.0760768 0.00982123 -0.000790824 0.0436716 1.96518e-05 
686 1 1 0 0 5.67868 9.25036 7.90114 0.0660782 -0.0534738 -0.0328849 0 -0.493522 0.00446555 
685 1 1 0 0 4.92258 9.35117 6.83137 -0.00538367 -0.0618951 -0.000770541 0 -0.506278 0.00207526 
37 1 1 0 0 7.36979 7.30561 6.90827 -0.0232369 -0.0529873 0.0147709 0 -0.511979 0.0019168 
38 1 1 0 0 8.46509 6.65087 7.24421 -0.0189356 -0.0227286 0.0630905 0 -0.504049 0.00261012 
39 2 0 1 1.56177 7.88505 6.97007 7.08139 -0.0102188 -0.0426827 0.0391643 -0.00380825 0.047928 9.25506e-06 
40 2 0 -1 1.56181 7.88483 6.97028 7.08134 -0.00903022 -0.0423736 0.039315 0.00104405 0.0479178 9.12867e-06 
20 2 0 -1 1.601 2.25621 8.27088 5.36291 0.0398162 0.00457507 0.0722505 0.00925893 0.0197996 1.83735e-05 
805 1 1 0 0 2.65028 8.74895 8.51184 0.0943309 0.0773113 0.0689761 0 -0.492621 0.0105538 
19 2 0 1 1.60104 2.25602 8.27081 5.36305 0.0403318 0.00436378 0.0698589 0.00959213 0.0197964 1.7585e-05 
173 1 1 0 0 3.2434 4.93506 9.15034 -0.089611 -0.0639611 0.0320588 0 -0.490952 0.00706823 
175 2 0 1 1.5939 2.58029 5.01316 9.4821 -0.053614 -0.0635612 0.0543764 -0.000318721 0.0414826 2.63213e-05 
176 2 0 -1 1.59381 2.58064 5.01309 9.48196 -0.0569325 -0.0640397 0.0558708 -0.00035177 0.0415023 2.79016e-05 
201 1 1 0 0 4.63341 4.70279 6.01299 0.0456293 -0.0505141 0.0202227 0 -0.475645 0.0027107 
202 1 1 0 0 4.40296 6.07862 6.13908 0.00263336 -0.051322 0.0123648 0 -0.479172 0.0015018 
203 2 0 1 1.65161 4.49975 5.40846 6.09369 0.037729 -0.0458083 0.0182597 0.00668766 0.00458717 1.03693e-05 
204 2 0 -1 1.6515 4.49972 5.40853 6.09368 0.0380889 -0.0479482 0.0178949 0.00542879 0.00461171 1.09114e-05 
482 1 1 0 0 3.41045 2.11158 4.93262 0.0948677 -0.0323456 -0.0138608 0 -0.502392 0.00550359 
789 1 1 0 0 8.19082 1.23757 9.65254 -0.0287433 -0.0267237 -0.0109868 0 -0.49248 0.000892896 
728 2 0 -1 1.60058 8.98953 3.84708 8.07463 0.0114569 -0.0392021 0.0294073 -0.00514815 0.0389445 6.80668e-06 
217 1 1 0 0 5.87538 5.35317 8.92352 0.0224862 -0.0249609 -0.0293456 0 -0.517799 0.00106965 
214 1 1 0 0 7.99266 4.83552 5.39626 -0.0525722 -0.0153289 0.0425425 0 -0.498712 0.00258492 
17 1 1 0 0 1.91514 8.18717 5.93387 0.0228647 0.0140318 0.0569659 0 -0.484553 0.00213129 
409 1 1 0 0 1.12263 2.1671 7.1143 0.0793321 0.0275596 0.00897781 0 -0.512103 0.00383475 
410 1 1 0 0 1.63268 3.40293 7.29794 0.0605049 0.0466887 0.032905 0 -0.505844 0.0037217 
411 2 0 1 1.59293 1.3858 2.7716 7.19886 0.0570267 0.0250634 0.0119551 0.00926445 0.0444685 1.08991e-05 
412 2 0 -1 1.59319 1.38582 2.77171 7.19884 0.0547273 0.0224424 0.0119734 0.0104599 0.0443988 9.93019e-06 
465 1 1 0 0 4.05102 1.2493 8.56715 -0.0160306 -0.0376144 0.0221948 0 -0.494466 0.0011635 
466 1 1 0 0 5.07318 2.09962 8.8141 0.00278315 -0.060232 0.0141487 0 -0.521743 0.00206196 
467 2 0 1 1.59538 4.60024 1.71405 8.6947 -0.0038912 -0.0380308 0.023129 0.00303746 0.0447806 5.3418e-06 
468 2 0 -1 1.59555 4.60042 1.71411 8.69475 -0.00504691 -0.0384894 0.02306 -0.00226632 0.0447332 5.44624e-06 
808 2 0 -1 1.6021 2.08239 8.93651 8.73608 0.074895 0.091061 0.0612714 -0.00123222 0.0209691 4.70804e-05 
807 2 0 1 1.60248 2.08236 8.93655 8.73614 0.0724275 0.0913841 0.0611381 -0.00315426 0.0208781 4.62416e-05 
725 1 1 0 0 9.06706 3.51185 7.50938 -0.00733306 -0.018236 0.0259104 0 -0.508426 0.000568556 
220 2 0 -1 1.55669 5.72014 5.19571 9.49994 0.0168618 -0.0326281 -0.0344507 0.00707627 0.0479409 6.86158e-06 
688 2 0 -1 1.55109 5.27367 9.2749 7.33382 0.0390181 -0.0745297 0.00918572 0.00816147 0.0437999 1.92288e-05 
727 2 0 1 1.60052 8.98955 3.84699 8.0746 0.0118416 -0.0375972 0.0309453 -0.00553361 0.0389582 6.75767e-06 
219 2 0 1 1.557 5.72014 5.19577 9.5001 0.0173122 -0.0321841 -0.0327473 0.0152239 0.0478403 6.88404e-06 
581 1 1 0 0 6.53575 1.04569 6.82048 0.00322072 -0.0791392 0.00650318 0 -0.497596 0.00339501 
582 1 1 0 0 7.20355 1.68627 5.83075 -0.0162304 -0.0198829 0.0223089 0 -0.513797 0.000621649 
583 2 0 1 1.59973 6.91002 1.36714 6.28436 -0.00942735 -0.041865 0.028533 0.00759245 0.0417483 7.19649e-06 
584 2 0 -1 1.59933 6.91005 1.36717 6.28431 -0.00900736 -0.0419939 0.0284975 0.00720657 0.0418559 7.18785e-06 
174 1 1 0 0 2.01819 5.07458 9.73398 -0.068633 -0.0516716 0.0823755 0 -0.516579 0.00761506 
806 1 1 0 0 1.44777 9.20317 8.97823 0.0874466 0.0686112 0.0488341 0 -0.48173 0.00792308 
791 2 0 1 1.60969 7.858 1.03974 10.213 -0.018586 -0.0319826 0.00958893 0.00623034 0.0267306 3.97135e-06 
477 1 1 0 0 8.63735 9.53257 5.72956 -0.013181 -0.0791389 0.0367696 0 -0.512785 0.00418684 
726 1 1 0 0 8.89417 4.2643 8.62849 0.0384262 -0.0445578 0.0524352 0 -0.499732 0.00333896 
792 2 0 -1 1.61001 7.85819 1.0398 10.2128 -0.0195206 -0.0323006 0.00983897 0.00248927 0.0266488 4.06853e-06 
557 1 1 0 0 0.642458 0.196339 4.81339 -0.0508685 -0.0873184 -0.109374 0 -0.515211 0.0119201 
256 2 0 -1 1.60279 1.57615 0.589439 14.0955 0.0105854 0.0276992 0.0323404 -0.00536558 0.0402016 5.19097e-06 
154 1 1 0 0 6.21085 9.06185 10.3012 0.0177941 0.0136047 0.100829 0 -0.502886 0.0057347 
637 1 1 0 0 9.3334 3.53217 13.181 0.058787 0.0578512 0.0551707 0 -0.495102 0.005293 
639 2 0 1 1.62588 9.19833 3.2242 12.5804 0.0263948 0.0183667 0.0428222 0.00352948 0.0255589 7.67159e-06 
638 1 1 0 0 9.04553 2.9151 11.9863 0.0378968 0.0254895 0.0802493 0 -0.495362 0.00458308 
700 2 0 -1 1.60395 1.56077 1.43971 10.7782 -0.0321588 0.0469275 0.031912 0.0170264 0.0467112 1.19247e-05 
803 2 0 1 1.60849 6.01957 8.97708 13.9969 -0.00252726 -0.0378555 -0.115177 -0.00570001 0.03728 3.92751e-05 
255 2 0 1 1.60314 1.57611 0.589551 14.0955 0.0110225 0.0317324 0.0322228 -0.00793765 0.0401095 5.90349e-06 
156 2 0 -1 1.58153 5.77215 8.67562 10.4665 -0.00566866 0.00195074 0.0635274 0.00136259 0.0305936 1.08606e-05 
155 2 0 1 1.58162 5.77199 8.67545 10.4665 -0.00620031 0.00106361 0.0637133 0.00523745 0.0305716 1.09844e-05 
182 1 1 0 0 0.374596 6.24697 12.1633 0.0459707 0.0142663 0.0709048 0 -0.485087 0.00394796 
571 2 0 1 1.55539 8.6327 6.21962 10.5229 -0.0185195 0.0392753 -0.016655 0.0013581 0.0483298 5.77094e-06 
816 2 0 -1 1.56607 9.58366 8.63621 12.2797 0.0122003 0.0185449 -0.09391 -0.0125238 0.0514449 2.51431e-05 
245 1 1 0 0 2.9066 7.6081 11.6131 -0.0691012 0.0568615 0.0345073 0 -0.507661 0.00494492 
246 1 1 0 0 3.25526 8.01336 12.8618 0.0212584 0.104455 -0.00661893 0 -0.486227 0.00613166 
247 2 0 1 1.5885 3.0768 7.76727 12.1818 -0.0394245 0.0648037 0.011805 -0.00445541 0.0323737 1.57534e-05 
248 2 0 -1 1.5891 3.0769 7.7674 12.1818 -0.0399732 0.0645892 0.0107414 -0.0058314 0.0322259 1.576e-05 
570 1 1 0 0 9.21129 6.03117 10.7433 -0.00789143 0.0592905 -0.0621608 0 -0.510834 0.00400025 
697 1 1 0 0 1.90588 1.8369 10.4525 -0.0506896 0.0650315 0.00101957 0 -0.525016 0.00365512 
267 2 0 1 1.58836 0.0444656 8.08794 14.5623 -0.0398269 0.00500664 0.0321248 0.0133271 0.0262797 7.40325e-06 
268 2 0 -1 1.58847 0.0444928 8.08791 14.5623 -0.0390536 0.00532712 0.0291276 0.012598 0.026265 6.72211e-06 
273 1 1 0 0 5.12963 1.69511 13.0406 -0.0668813 0.0247182 -0.0900216 0 -0.511203 0.00708923 
274 1 1 0 0 5.01385 3.01507 12.6728 -0.0880969 0.0634226 0.00938102 0 -0.479023 0.00638155 
275 2 0 1 1.62546 5.07077 2.30399 12.86 -0.0719925 0.0386227 -0.0492189 0.000741103 0.0288709 2.4258e-05 
276 2 0 -1 1.62572 5.07077 2.30374 12.8602 -0.0721158 0.0374362 -0.048392 0.000772727 0.0288111 2.38496e-05 
640 2 0 -1 1.62566 9.19834 3.22421 12.5804 0.0258324 0.0185386 0.0427875 0.00277296 0.0256051 7.59275e-06 
699 2 0 1 1.60398 1.56073 1.4396 10.7782 -0.0320006 0.0468794 0.0309158 0.0201474 0.0467133 1.19508e-05 
814 1 1 0 0 10.098 8.99035 12.3205 0.0153075 -0.00216001 -0.0811432 0 -0.518196 0.00366783 
572 2 0 -1 1.55509 8.63196 6.21999 10.5226 -0.0187171 0.0399916 -0.0173133 0.00125069 0.0484143 6.00103e-06 
813 1 1 0 0 9.01344 8.222 12.1991 0.0138609 0.0179811 -0.135083 0 -0.50101 0.010086 
790 1 1 0 0 7.5305 0.846932 10.775 0.00139132 -0.020332 0.0129555 0 -0.494285 0.000313486 
265 1 1 0 0 0.17921 8.23699 13.8947 -0.0902297 0.019876 0.0562303 0 -0.482939 0.00628845 
815 2 0 1 1.56619 9.58412 8.63645 12.2798 0.012609 0.0191269 -0.0933213 -0.0121167 0.0514208 2.49146e-05 
253 1 1 0 0 1.69803 1.29972 13.9348 -0.0209456 0.0366042 0.0179897 0 -0.495112 0.00113005 
802 1 1 0 0 5.9917 9.2601 13.4004 0.000524062 -0.0770767 -0.128312 0 -0.509701 0.0120439 
801 1 1 0 0 6.02453 8.66897 14.6364 0.00740579 -0.027939 -0.105567 0 -0.497615 0.00643979 
421 1 1 0 0 2.35439 3.83373 13.2081 -0.0121057 0.0059713 -0.0646205 0 -0.502795 0.00234266 
422 1 1 0 0 1.71337 4.12131 14.3838 -0.0449491 -0.0669176 -0.0857776 0 -0.48895 0.00744843 
423 2 0 1 1.61596 2.05055 3.9725 13.7478 -0.0361308 -0.020053 -0.0682547 -0.00836012 0.0283398 1.71149e-05 
424 2 0 -1 1.61606 2.05027 3.97254 13.7482 -0.0366487 -0.0208763 -0.0667399 -0.00373714 0.0283188 1.66482e-05 
513 1 1 0 0 4.96385 5.68468 12.6753 -0.0265461 0.0166864 -0.0122246 0 -0.491888 0.000608816 
514 1 1 0 0 6.25288 5.31771 12.7761 -0.0399615 -0.0510031 -0.0718793 0 -0.490326 0.00503411 
515 2 0 1 1.56804 5.59133 5.47178 12.7074 -0.0252846 -0.0143011 -0.0402389 0.000888703 0.0296079 6.569e-06 
516 2 0 -1 1.56839 5.59086 5.47178 12.7074 -0.0266925 -0.0139514 -0.0392067 0.00219088 0.0295057 6.52714e-06 
698 1 1 0 0 1.15667 0.944554 11.1509 -0.00908374 0.046329 0.0583177 0 -0.49986 0.00302634 
153 1 1 0 0 5.21468 8.25046 10.6798 -0.0195242 0.00976089 0.0556898 0 -0.481784 0.00192327 
804 2 0 -1 1.6083 6.01946 8.97696 13.9972 -0.00216594 -0.0400028 -0.112212 -0.0037619 0.0373366 3.78821e-05 
569 1 1 0 0 8.00741 6.41419 10.3105 -0.0340637 0.0321222 -0.0031108 0 -0.502544 0.00118361 
609 1 1 0 0 0.42422 9.98274 11.7199 0.0182334 0.131041 0.00410072 0 -0.504831 0.00941843 
786 1 1 0 0 9.16158 6.15956 14.671 0.0705231 0.0106654 -0.0626424 0 -0.49361 0.00484406 
788 2 0 -1 1.609 8.47482 6.26392 14.7412 0.0622558 -0.0199017 -0.0461358 0.00665746 0.0317092 1.71548e-05 
787 2 0 1 1.60923 8.4747 6.26398 14.7413 0.0629761 -0.0199623 -0.0468102 0.00218785 0.0316563 1.74898e-05 
785 1 1 0 0 7.83603 6.37444 14.8359 0.063998 -0.0244205 -0.049565 0 -0.501984 0.00384285 
218 1 1 0 0 5.56469 5.04904 10.1781 0.0188309 -0.0613658 -0.0334925 0 -0.491144 0.00281791 
646 1 1 0 0 5.35435 8.09006 17.3892 -0.0265793 0.0543195 -0.0961191 0 -0.493993 0.00693225 
817 1 1 0 0 8.16974 5.48772 18.0143 0.0883844 -0.0753902 0.0188705 0 -0.48571 0.00744595 
350 1 1 0 0 1.12132 4.80098 17.2522 -0.00427323 -0.0121675 -0.0328326 0 -0.504274 0.000668871 
351 2 0 1 1.59201 0.579392 4.87865 16.8617 -0.00496162 -0.0041278 -0.0327207 -0.00110041 0.0386746 2.96829e-06 
730 1 1 0 0 9.6262 1.80905 19.2993 0.00322293 0.0633945 -0.0282072 0 -0.482461 0.00259364 
84 2 0 -1 1.57849 3.28941 6.74116 15.6642 0.0587065 0.0374014 0.0267601 0.0114372 0.0416902 1.50907e-05 
820 2 0 -1 1.62772 8.23074 4.79679 18.2352 0.112564 -0.0720925 0.0328172 0.0151534 0.0229466 5.09744e-05 
819 2 0 1 1.62795 8.23074 4.79633 18.2353 0.112855 -0.0733339 0.0328863 0.0119139 0.0228919 5.14675e-05 
818 1 1 0 0 8.23109 4.16326 18.4429 0.12974 -0.0790301 0.0277879 0 -0.495765 0.0128208 
42 1 1 0 0 9.60551 9.74027 16.3283 0.0542795 0.00679109 0.0233374 0 -0.503313 0.00190133 
763 2 0 1 1.63578 6.42442 1.64373 19.0714 0.000891585 -0.0597573 0.0467796 0.00499367 0.0219205 1.54087e-05 
91 2 0 1 1.5818 1.2519 5.3201 20.3392 0.0153497 -0.0616108 0.0889493 0.0102682 0.0355403 3.20573e-05 
92 2 0 -1 1.58209 1.25187 5.32022 20.3392 0.0146104 -0.0610848 0.0890509 0.0153055 0.0354585 3.2132e-05 
645 1 1 0 0 6.61065 8.57667 17.2451 -0.00145696 -0.0111944 -0.134813 0 -0.511607 0.00983827 
722 1 1 0 0 4.89449 0.388906 15.8193 -0.016518 -0.0485214 -0.0109059 0 -0.494311 0.00147618 
352 2 0 -1 1.59222 0.57934 4.87861 16.8616 -0.00808884 -0.00411879 -0.0353225 0.00174755 0.0386378 3.55265e-06 
90 1 1 0 0 1.56252 4.7568 20.1685 0.0169532 -0.0946097 0.132752 0 -0.502348 0.0144394 
366 1 1 0 0 5.90887 4.26003 16.5381 -0.0799596 -0.0958728 -0.04052 0 -0.499831 0.00926042 
367 2 0 1 1.60275 5.67446 4.08025 15.9215 -0.0822362 -0.0561103 -0.0308788 0.0155067 0.0347918 2.94507e-05 
368 2 0 -1 1.6026 5.67454 4.08025 15.9215 -0.0837543 -0.0567707 -0.0325023 0.0220462 0.0348383 3.10869e-05 
461 1 1 0 0 -0.700676 9.24851 17.8484 -0.128687 -0.0227394 0.00693935 0 -0.491462 0.00920594 
781 1 1 0 0 2.1259 9.79118 14.7587 -0.0372414 0.0227191 -0.0787358 0 -0.502026 0.00435546 
840 2 0 -1 1.57873 0.013419 1.1666 18.8998 -0.0425965 0.000558694 -0.0779988 -0.0113503 0.0539402 2.13187e-05 
372 2 0 -1 1.64174 9.24539 0.917708 15.9066 6.25585e-05 0.0187915 -0.0402938 0.00612116 0.0289696 5.3457e-06 
783 2 0 1 1.55834 2.76754 9.99254 14.8135 -0.0205007 0.0111773 -0.0382328 0.00504367 0.0526761 5.40228e-06 
648 2 0 -1 1.59818 6.0404 8.30303 17.2915 0.00181653 0.0300631 -0.116099 0.00509903 0.0387559 3.84115e-05 
647 2 0 1 1.59786 6.04036 8.3029 17.2914 -0.00377788 0.0286753 -0.115852 0.00802368 0.0388288 3.8147e-05 
589 1 1 0 0 3.34216 2.6045 17.0365 -0.0328766 0.0273637 0.00635429 0 -0.505981 0.00100523 
590 1 1 0 0 2.32029 1.73617 16.7872 0.00956953 -0.0221344 0.0278949 0 -0.492044 0.000730875 
591 2 0 1 1.60407 2.86414 2.19413 16.9474 -0.0244561 0.000392844 0.0126673 -0.000345506 0.0333462 2.02331e-06 
592 2 0 -1 1.60421 2.86426 2.19419 16.9474 -0.026684 -0.000853628 0.0118398 0.00223765 0.0333063 2.28434e-06 
617 1 1 0 0 2.43094 8.89688 18.1748 -0.0448593 -0.100076 -0.0240365 0 -0.489761 0.00677605 
618 1 1 0 0 2.90693 8.13101 19.2171 0.00165129 -0.0595672 -0.0148026 0 -0.483209 0.00202662 
619 2 0 1 1.62828 2.65841 8.52395 18.6857 -0.0288606 -0.0743062 -0.0138952 -0.000400569 0.0170441 1.74586e-05 
620 2 0 -1 1.62872 2.6584 8.52399 18.6857 -0.0306144 -0.0720912 -0.0161591 -0.00356857 0.0169466 1.70786e-05 
82 1 1 0 0 2.80547 7.24511 15.7371 0.0400559 0.0376973 0.0116936 0 -0.495173 0.0016999 
416 2 0 -1 1.61354 4.65 5.3995 18.9879 0.0493941 0.0684081 -0.0121554 0.0129235 0.0213764 1.97115e-05 
784 2 0 -1 1.55914 2.76697 9.99238 14.8134 -0.0186821 0.0120328 -0.0379574 0.00382019 0.0524652 5.18759e-06 
83 2 0 1 1.57801 3.2896 6.74099 15.6642 0.0616506 0.0353002 0.0260785 0.00945027 0.0418016 1.54492e-05 
81 1 1 0 0 3.6985 6.274 15.5744 0.0674927 0.0525547 0.0591138 0 -0.511995 0.00581185 
349 1 1 0 0 0.0173435 4.95006 16.4932 -0.0139317 -0.0134262 -0.043886 0 -0.500959 0.00123655 
44 2 0 -1 1.61141 9.27793 9.64828 15.7411 0.0905933 -0.0152562 -0.0108137 0.00154219 0.0346727 2.28209e-05 
71 2 0 1 1.62976 9.86016 7.94914 18.8512 0.0411929 -0.0346072 0.0177322 0.00029138 0.0228486 8.55662e-06 
41 1 1 0 0 8.94051 9.45551 15.1531 0.105889 -0.0036367 -0.00119957 0 -0.501404 0.00603523 
764 2 0 -1 1.63585 6.42445 1.64368 19.0709 -7.075e-05 -0.060936 0.0447172 0.0113414 0.0219059 1.54901e-05 
761 1 1 0 0 6.34002 1.51286 18.3917 -0.0348421 -0.0472696 0.0639472 0 -0.496316 0.00405187 
762 1 1 0 0 6.48329 1.67939 19.7637 0.0362185 -0.0802339 0.0594715 0 -0.485614 0.00606688 
413 1 1 0 0 4.5109 5.5763 18.3761 0.04496 0.0748384 -0.00396021 0 -0.490315 0.00410576 
70 1 1 0 0 9.42772 8.32357 19.2068 0.0643908 -0.013391 0.0252004 0 -0.496867 0.00266656 
838 1 1 0 0 0.599008 1.00161 19.1678 -0.0267722 0.0378436 -0.101411 0 -0.514438 0.00668339 
414 1 1 0 0 4.83194 5.21437 19.6463 0.0455945 0.0450373 -0.00799947 0 -0.487251 0.00224224 
415 2 0 1 1.61376 4.65039 5.39923 18.9889 0.0497792 0.0687771 -0.0112966 0.00978867 0.0213182 1.97522e-05 
365 1 1 0 0 5.49238 3.88787 15.2972 -0.10788 -0.0513397 -0.0669809 0 -0.502379 0.0100847 
839 2 0 1 1.57902 0.0134652 1.16665 18.8999 -0.0417761 0.00211483 -0.0784628 -0.0130881 0.0538571 2.14237e-05 
369 1 1 0 0 8.68096 0.914638 15.6342 -0.0207899 0.0117242 -0.0611884 0 -0.513752 0.00231884 
370 1 1 0 0 9.94175 0.94394 16.212 -0.0314342 0.0424985 -0.0321166 0 -0.481272 0.00205652 
371 2 0 1 1.64158 9.24547 0.917707 15.9066 -0.00313361 0.0190192 -0.0417081 0.0103405 0.0290098 5.84298e-06 
72 2 0 -1 1.63007 9.8602 7.94912 18.8512 0.0395834 -0.0345168 0.0184671 0.00802195 0.0227731 8.39272e-06 
724 2 0 -1 1.6285 5.42056 -0.0594135 15.9801 -0.019647 -0.0696717 -0.0338704 0.0106159 0.0289631 1.72568e-05 
723 2 0 1 1.62835 5.42041 -0.0591231 15.9801 -0.0191272 -0.0713206 -0.0335227 0.00911561 0.0289905 1.77013e-05 
43 2 0 1 1.61163 9.27778 9.64829 15.741 0.0900831 -0.0150227 -0.0103652 0.00287296 0.0346188 2.25427e-05 
747 2 0 1 1.55897 9.39024 19.9494 1.95907 0.0310722 0.00480088 -0.0111025 0.00880334 0.0486521 3.11952e-06 
628 2 0 -1 1.64149 3.88085 19.0168 4.54628 -0.0225923 -0.052797 -0.0205982 -0.00139556 0.0338656 9.92893e-06 
627 2 0 1 1.64146 3.88083 19.0168 4.54633 -0.0226827 -0.0521878 -0.0205615 -0.00249889 0.0338738 9.77387e-06 
97 1 1 0 0 -0.124258 17.3313 4.88871 0.023136 0.126605 0.0788961 0 -0.488142 0.0122501 
61 1 1 0 0 10.3101 14.6827 3.43818 0.0757983 0.102032 0.00501191 0 -0.503445 0.00869815 
606 1 1 0 0 9.98814 13.8843 0.420727 0.0517088 -0.0178928 -0.000289718 0 -0.519398 0.00160945 
321 1 1 0 0 4.62243 10.3626 3.81799 -0.0159125 0.0384118 0.0811104 0 -0.520705 0.00446575 
322 1 1 0 0 5.45165 10.3554 4.87113 0.0732549 -0.0227173 0.0192775 0 -0.495613 0.00336184 
323 2 0 1 1.57347 5.01919 10.3508 4.29608 0.0101364 0.0142918 0.0538606 0.000639675 0.0491138 8.55463e-06 
324 2 0 -1 1.57355 5.01927 10.3508 4.29603 0.0100664 0.0141484 0.0554231 0.00297504 0.0490824 9.01217e-06 
385 1 1 0 0 4.0505 16.618 2.44267 0.119834 -0.0412087 -0.0526802 0 -0.511733 0.010124 
386 1 1 0 0 3.56408 15.3256 2.49568 0.0497987 0.00139145 -0.0296901 0 -0.478477 0.00180798 
387 2 0 1 1.62904 3.85564 16.0496 2.46206 0.0770021 -0.0378838 -0.0392565 -0.00902043 0.0286379 2.39088e-05 
388 2 0 -1 1.62891 3.8556 16.0496 2.46209 0.0764846 -0.0399953 -0.0391267 -0.00928824 0.0286685 2.41182e-05 
389 1 1 0 0 5.58008 13.1439 1.26329 -0.0637647 0.00924302 -0.00694411 0 -0.503423 0.0022575 
390 1 1 0 0 4.60952 12.445 0.641224 -0.0481696 -0.011135 0.0104636 0 -0.517139 0.00137279 
391 2 0 1 1.60248 5.0588 12.783 0.929673 -0.0294322 -0.000878988 0.00687208 0.00955379 0.0465448 2.62033e-06 
392 2 0 -1 1.60225 5.05895 12.7831 0.929822 -0.0327011 -0.00365958 0.00314843 0.00606253 0.0465981 2.98702e-06 
405 1 1 0 0 8.09044 18.3716 4.38781 0.0619725 0.0122036 -0.00860799 0 -0.514286 0.0021844 
696 2 0 -1 1.6287 0.160851 15.4716 0.250514 0.0300089 -0.0169592 0.0351374 0.00399056 0.028145 6.49203e-06 
407 2 0 1 1.56283 8.08835 18.8982 4.72879 0.0114837 -0.0221028 -0.00548535 0.00991871 0.0494266 1.93126e-06 
408 2 0 -1 1.5631 8.08829 18.898 4.72859 0.00986709 -0.0228438 -0.00396713 0.00762751 0.0493555 1.80937e-06 
433 1 1 0 0 7.20996 12.3066 3.32846 0.0734532 0.0132868 0.0136679 0 -0.488953 0.00309562 
434 1 1 0 0 7.30784 13.6643 3.34499 0.0667196 0.0180922 -0.0176975 0 -0.509205 0.00273724 
435 2 0 1 1.58559 7.28168 13.0563 3.33936 0.0686495 0.0067988 0.00180539 -0.00461651 0.0357189 1.27408e-05 
436 2 0 -1 1.58543 7.28166 13.0566 3.3394 0.067711 0.00418946 0.00144843 -0.00581493 0.0357725 1.2345e-05 
99 2 0 1 1.59391 0.296595 17.1115 4.37284 0.0160582 0.0675816 0.0443197 0.0145941 0.0309781 1.85293e-05 
442 1 1 0 0 2.44637 11.0089 1.86069 -0.0353132 0.0752252 -0.0567115 0 -0.497678 0.00544113 
443 2 0 1 1.58518 2.77004 10.3827 1.72469 -0.0528822 0.0642498 -0.0504191 -0.00159487 0.0373428 2.52473e-05 
444 2 0 -1 1.58525 2.77009 10.3825 1.72458 -0.053742 0.0624678 -0.0504315 -0.0105512 0.0373228 2.51105e-05 
453 1 1 0 0 6.89984 17.1526 1.78763 -0.0451388 -0.0465648 -0.0436876 0 -0.498994 0.00328681 
454 1 1 0 0 8.25798 16.9356 1.63395 -0.0519338 -0.047007 -0.106314 0 -0.481496 0.00871337 
455 2 0 1 1.6224 7.51916 17.0309 1.7144 -0.0291255 -0.0305432 -0.062474 -0.0132982 0.0215521 1.55101e-05 
456 2 0 -1 1.62255 7.51885 17.031 1.71434 -0.0309859 -0.0308332 -0.0626797 -0.014583 0.0215178 1.59961e-05 
607 2 0 1 1.58992 9.52695 13.6869 0.834072 0.053864 0.00398223 -0.00841965 -0.00921706 0.0510718 8.1374e-06 
485 1 1 0 0 1.51037 13.7604 2.59166 0.0231469 -0.015524 0.0275366 0 -0.486556 0.000825161 
486 1 1 0 0 2.23989 13.4599 3.71098 0.0337002 -0.10181 0.0139138 0 -0.490359 0.00628647 
487 2 0 1 1.60785 1.89293 13.6125 3.15565 0.027566 -0.0396417 0.0117442 0.0114262 0.0203906 6.84524e-06 
488 2 0 -1 1.60786 1.89295 13.6124 3.15571 0.0260519 -0.0400795 0.0108239 0.0107544 0.0203828 6.63666e-06 
489 1 1 0 0 0.78865 18.9791 1.28286 0.0213303 0.0846018 -0.050948 0 -0.489294 0.00548741 
490 1 1 0 0 1.87256 18.4401 0.656492 0.0589405 0.0559508 -0.00861174 0 -0.501393 0.00359011 
491 2 0 1 1.61672 1.37544 18.7084 0.953035 0.0518186 0.0588133 -0.0424472 0.0155658 0.0274931 2.16718e-05 
492 2 0 -1 1.61662 1.37515 18.7085 0.953187 0.0523839 0.057854 -0.0433028 0.0156862 0.0275185 2.17336e-05 
608 2 0 -1 1.58984 9.52668 13.6867 0.834345 0.0532936 0.0042664 -0.00773802 -0.00434155 0.0510843 7.8191e-06 
605 1 1 0 0 9.00558 13.4483 1.21747 0.0407204 0.00231876 0.000591918 0 -0.511203 0.000894422 
100 2 0 -1 1.59396 0.296434 17.1115 4.37289 0.0121275 0.0681787 0.0470973 0.0161338 0.0309657 1.92217e-05 
98 1 1 0 0 0.692378 16.9296 3.89829 -0.0112394 0.056059 0.0569333 0 -0.504329 0.00349965 
745 1 1 0 0 9.5735 19.8525 1.32697 0.040781 0.0374902 -0.0383151 0 -0.511754 0.00243869 
625 1 1 0 0 3.90708 18.4104 4.59142 -0.018455 -0.0626558 0.0146851 0 -0.517498 0.00240931 
694 1 1 0 0 0.653671 15.9479 0.328795 0.0152341 -0.0144543 0.0509327 0 -0.49392 0.00163155 
626 1 1 0 0 3.86899 19.7923 4.42994 -0.0190523 -0.0624021 -0.0579566 0 -0.485825 0.00409399 
695 2 0 1 1.62861 0.160967 15.4717 0.250445 0.032101 -0.016823 0.036601 -0.00100216 0.0281692 7.07636e-06 
748 2 0 -1 1.5594 9.3902 19.9495 1.95886 0.0299024 0.00734675 -0.00682266 0.00547851 0.0485451 2.71225e-06 
561 1 1 0 0 0.0680602 10.1995 4.24246 -0.0169393 -0.0434152 0.0149191 0 -0.511778 0.00128712 
49 1 1 0 0 2.12225 11.2627 6.19474 -0.0277401 -0.0151335 -0.0627632 0 -0.517278 0.0026543 
50 1 1 0 0 2.31307 12.3865 6.88469 0.040213 -0.030371 -0.0581982 0 -0.511018 0.00318582 
51 2 0 1 1.56753 2.2105 11.7977 6.5444 0.00681811 -0.0110775 -0.0556427 -0.00942806 0.0529635 8.88448e-06 
52 2 0 -1 1.56749 2.21049 11.7977 6.54435 0.00764036 -0.0105577 -0.0558601 -0.00506414 0.0529701 8.82436e-06 
65 1 1 0 0 8.66221 13.8253 5.63595 0.0325878 -0.0288163 -0.00103313 0 -0.50823 0.00101781 
67 2 0 1 1.53731 8.84798 13.6524 6.29164 0.00564633 -0.039899 0.00218172 0.0045473 0.0697051 4.38383e-06 
68 2 0 -1 1.53771 8.84786 13.6526 6.29136 0.00411472 -0.0406934 0.00185706 0.00217418 0.0696033 4.47929e-06 
676 2 0 -1 1.56414 4.16705 11.7488 9.54067 -0.0171337 0.0267398 0.0238292 0.0062294 0.0393164 4.281e-06 
479 2 0 1 1.58465 8.49842 10.1682 5.92123 -0.0206378 -0.0599336 0.00334877 -0.00163688 0.0485367 1.07489e-05 
262 1 1 0 0 2.00071 19.4893 8.34682 0.0220957 0.000573504 0.0167494 0 -0.513592 0.000413427 
127 2 0 1 1.56315 9.30989 16.6785 7.15794 0.0858989 -0.00357543 -0.0254321 -0.00249515 0.0513446 2.14457e-05 
836 2 0 -1 1.62231 5.76884 18.2672 7.99257 0.0309632 -0.0210814 -0.0222401 -0.00035671 0.0163551 5.06053e-06 
835 2 0 1 1.62236 5.76884 18.2673 7.99273 0.031361 -0.0194087 -0.0196394 0.0016293 0.0163424 4.66067e-06 
834 1 1 0 0 5.91559 18.6 8.54106 0.0293276 -0.00308312 -0.0259105 0 -0.49193 0.000828352 
66 1 1 0 0 9.01786 13.6001 6.87464 -0.0181345 -0.0544829 0.0136227 0 -0.53445 0.0018722 
520 2 0 -1 1.60862 6.81114 15.1158 9.22483 -0.00437628 0.00658867 0.0361984 0.00450122 0.0386915 3.70123e-06 
794 1 1 0 0 -0.19938 16.9815 8.26995 -0.0331966 0.0455941 -0.0357127 0 -0.502022 0.00239546 
257 1 1 0 0 2.34457 15.1689 6.09492 -0.0521247 0.0441523 0.0359163 0 -0.497774 0.00320187 
258 1 1 0 0 3.27743 15.2215 7.11575 -0.00297291 -0.00720823 0.0142084 0 -0.493213 0.000141201 
259 2 0 1 1.63584 2.82837 15.1999 6.58006 -0.0394793 0.032939 0.00891512 0.0132667 0.025574 7.61287e-06 
260 2 0 -1 1.63559 2.82854 15.1999 6.58025 -0.0409746 0.0319285 0.00694717 0.0150866 0.0256316 7.77883e-06 
261 1 1 0 0 3.21404 19.3043 7.80371 0.0157715 -0.0336411 -0.0219489 0 -0.491851 0.00100104 
125 1 1 0 0 9.7742 16.3845 6.77777 0.100187 0.0661242 -0.0596341 0 -0.50679 0.0096577 