ITEM: TIMESTEP
5000
ITEM: NUMBER OF ATOMS
864
ITEM: BOX BOUNDS pp pp pp
0.0000000000000000e+00 2.0147801999999999e+01
0.0000000000000000e+00 2.0147801999999999e+01
0.0000000000000000e+00 2.0147801999999999e+01
ITEM: ATOMS id type q c_1a[1] c_1a[2] x y z vx vy vz c_1a[3] c_peatom c_keatom 
5 1 1 0 0 8.42109 2.36967 1.49179 -0.000809972 0.0271044 0.0914236 0 -0.503316 0.00488827 
7 2 0 1 1.55343 8.31811 3.0809 1.50905 0.0190114 0.0150476 0.0959792 -0.00984912 0.0530567 2.63247e-05 
8 2 0 -1 1.55313 8.31806 3.08062 1.50903 0.0192241 0.0177505 0.0976658 -0.00523652 0.0531266 2.73144e-05 
33 1 1 0 0 4.46577 7.34654 2.41951 -0.014694 -0.0309115 0.0753842 0 -0.480705 0.0036845 
34 1 1 0 0 3.26493 6.71968 2.36341 -0.042604 0.0238419 0.0445351 0 -0.513071 0.00234745 
35 2 0 1 1.57524 3.79323 7.01136 2.37496 0.00203371 0.00200799 0.0602294 -0.0133301 0.0359443 1.00498e-05 
36 2 0 -1 1.57571 3.7935 7.01155 2.37499 0.00243416 -0.000420857 0.0602297 -0.00735468 0.0358378 9.79725e-06 
768 2 0 -1 1.62055 2.91848 1.78965 0.768678 0.00847336 0.0417145 -0.0374854 2.19732e-05 0.0221704 8.57803e-06 
767 2 0 1 1.62065 2.91804 1.78954 0.769306 0.00952442 0.0412363 -0.0389153 -0.00225174 0.0221447 8.82415e-06 
766 1 1 0 0 3.21631 1.93206 0.209982 0.0307752 0.0631637 -0.0305101 0 -0.497256 0.00315416 
185 1 1 0 0 6.37718 0.296587 2.39323 -0.0541717 -0.0257887 -0.0689296 0 -0.500161 0.00448905 
186 1 1 0 0 5.30226 1.04649 2.01836 -0.0507273 -0.0205057 -0.0902055 0 -0.498608 0.00598338 
187 2 0 1 1.60805 5.83544 0.674911 2.19325 -0.0501183 -0.0238841 -0.066054 0.011691 0.0324049 2.01261e-05 
188 2 0 -1 1.60784 5.83544 0.674894 2.19328 -0.0515794 -0.0222784 -0.0663768 0.0111691 0.0324537 2.04147e-05 
189 1 1 0 0 4.87618 4.65983 2.56015 -0.0328943 -0.000341409 -0.0354645 0 -0.496625 0.00125781 
213 1 1 0 0 7.67594 4.55011 4.04475 -0.034791 -0.0386224 -0.025193 0 -0.491383 0.0017937 
191 2 0 1 1.58254 5.32032 4.1389 2.41278 -0.0674845 -0.0194731 -0.0454971 -0.000250109 0.0351193 1.86741e-05 
192 2 0 -1 1.5826 5.32024 4.13908 2.41292 -0.0637968 -0.0230716 -0.0462437 0.00608126 0.0351088 1.80479e-05 
233 1 1 0 0 6.60398 8.35853 3.76165 0.0659909 -0.00733219 -0.0477893 0 -0.5152 0.0035975 
234 1 1 0 0 6.7327 7.15936 4.33303 0.045079 -0.0105802 -0.063876 0 -0.506566 0.00334584 
235 2 0 1 1.56299 6.63238 7.76481 4.01723 0.0455724 -0.013038 -0.0553815 -0.00752018 0.0506539 1.42823e-05 
236 2 0 -1 1.56369 6.63239 7.76532 4.01702 0.0456934 -0.0168818 -0.053488 -0.00627988 0.0504743 1.40346e-05 
216 2 0 -1 1.57814 7.98642 4.75544 4.60736 -0.029143 -0.0409911 -0.027749 0.00311273 0.0329466 8.8175e-06 
661 1 1 0 0 10.0199 7.03073 3.40769 0.0888598 0.0191085 0.0514838 0 -0.488331 0.00586565 
441 1 1 0 0 2.77048 9.59276 1.59497 0.0359365 -0.0684954 0.0568643 0 -0.505602 0.0049544 
622 1 1 0 0 5.50323 9.47755 0.753031 0.115972 -0.0233652 -0.00514161 0 -0.500855 0.00753744 
215 2 0 1 1.57801 7.98652 4.75529 4.60726 -0.0294818 -0.040426 -0.0282814 -0.0101533 0.0329875 9.01413e-06 
566 1 1 0 0 1.52696 4.3611 3.58314 0.0182573 -0.0321322 0.0327026 0 -0.514761 0.00130908 
401 1 1 0 0 8.12022 6.42743 1.7819 -0.0637232 -0.0569046 -0.0304554 0 -0.520244 0.00442207 
481 1 1 0 0 4.11156 2.48465 4.71666 -0.0538144 -0.0102374 -0.101571 0 -0.520116 0.00715884 
746 1 1 0 0 9.42558 0.100342 2.59367 -0.0303029 0.00525297 0.0154431 0 -0.499152 0.000636649 
494 1 1 0 0 9.02614 9.99642 2.33355 -0.0236599 -0.054989 0.0391204 0 -0.535905 0.00274904 
748 2 0 -1 1.59832 9.44814 0.00613257 1.93778 -0.0188111 -0.0178258 0.0119216 0.00124874 0.0336715 2.17291e-06 
565 1 1 0 0 0.733911 4.34437 2.43984 0.0132981 0.0141787 0.0365191 0 -0.480184 0.000920031 
560 2 0 -1 1.63411 0.371157 0.349299 4.66803 0.0475531 0.0869554 0.0720342 0.0171681 0.0275391 4.06165e-05 
765 1 1 0 0 2.57148 1.61952 1.38977 0.0139348 0.0409346 -0.041972 0 -0.482962 0.0019521 
18 1 1 0 0 2.47582 8.52669 4.43605 -0.0613596 -0.0211935 -0.0382098 0 -0.49826 0.00305016 
594 1 1 0 0 0.765557 8.83749 1.33567 0.0304633 -0.0229917 0.0135467 0 -0.494936 0.000881665 
567 2 0 1 1.6325 1.16611 4.3878 3.09246 0.0113494 -0.00685126 0.024496 -0.00450952 0.0288818 2.10929e-06 
6 1 1 0 0 8.25214 3.68936 1.51818 0.042936 0.023069 0.107281 0 -0.51747 0.00746385 
621 1 1 0 0 6.1176 8.40002 0.269358 0.109587 -0.00858056 -0.0281309 0 -0.495961 0.00692058 
568 2 0 -1 1.63249 1.16579 4.38779 3.09197 0.011672 -0.00684226 0.0261986 -0.00425496 0.0288823 2.35445e-06 
623 2 0 1 1.56489 5.80417 8.94725 0.555387 0.0899978 -0.00811017 -0.00675754 0.00434961 0.0392546 2.1932e-05 
624 2 0 -1 1.56507 5.80412 8.94737 0.55542 0.0879795 -0.00956728 -0.00613347 -0.00708108 0.0392234 2.10839e-05 
190 1 1 0 0 5.70622 3.6372 2.27419 -0.0811547 -0.0346764 -0.0500841 0 -0.499226 0.00553515 
403 2 0 1 1.55371 8.60218 6.44557 1.42177 -0.0396951 -0.0650742 -0.00658772 -0.00646876 0.0526076 1.56923e-05 
402 1 1 0 0 9.16411 6.51428 0.963832 -0.0156664 -0.0696833 0.0322754 0 -0.496728 0.00330213 
559 2 0 1 1.63414 0.371099 0.349335 4.66798 0.0475621 0.0835003 0.0732705 0.0190029 0.0275283 3.96601e-05 
404 2 0 -1 1.55336 8.60232 6.44555 1.42167 -0.0416718 -0.065856 -0.00472066 -0.0056854 0.052707 1.63188e-05 
595 2 0 1 1.54022 0.212321 8.34606 1.31441 0.0320636 -0.0184392 0.0371634 -0.00972965 0.0638233 7.51985e-06 
747 2 0 1 1.59844 9.44814 0.00609789 1.93729 -0.018009 -0.0177049 0.0143447 0.00444248 0.0336471 2.28876e-06 
558 1 1 0 0 0.107899 0.857677 4.41446 0.0563595 0.115985 0.0930492 0 -0.510962 0.0135931 
596 2 0 -1 1.54044 0.212306 8.34589 1.3144 0.032379 -0.0173851 0.0359029 -0.00963917 0.0637588 7.22428e-06 
542 1 1 0 0 0.295497 6.17605 7.70514 0.0383022 0.015827 0.0557318 0 -0.523309 0.00259293 
687 2 0 1 1.59702 4.82497 8.89458 6.98844 0.0133056 0.0769395 0.0387041 0.0105146 0.0280135 2.04719e-05 
686 1 1 0 0 4.97656 8.84106 7.57594 0.0368884 0.0838379 0.0504938 0 -0.507346 0.00588038 
685 1 1 0 0 4.60988 8.96564 6.26809 0.000872591 0.0721447 0.0463416 0 -0.476182 0.00395271 
37 1 1 0 0 7.43267 7.65776 7.03779 -0.033657 0.0015826 -0.0342781 0 -0.495888 0.0012419 
38 1 1 0 0 8.65476 7.1152 7.32284 -0.0355268 -0.0404906 -0.0692097 0 -0.516691 0.00413465 
39 2 0 1 1.61497 8.07493 7.33842 7.18839 -0.0400787 -0.0168106 -0.0445581 -0.00254853 0.0394847 1.03436e-05 
40 2 0 -1 1.61512 8.07489 7.33844 7.18832 -0.0399411 -0.0165839 -0.0443222 -9.97021e-05 0.0394518 1.02252e-05 
347 2 0 1 1.58798 9.95398 0.149982 7.69454 0.0135377 -0.0459961 -0.0399053 -0.00180883 0.0254743 1.03825e-05 
805 1 1 0 0 2.41321 8.24656 8.41982 -0.0635456 -0.036312 -0.0259128 0 -0.506238 0.0032404 
348 2 0 -1 1.58845 9.95412 0.150063 7.69456 0.0141825 -0.0461058 -0.0387354 0.00519581 0.0253509 1.02593e-05 
173 1 1 0 0 3.25385 5.22133 9.16657 0.0336902 0.0302982 0.00259385 0 -0.503515 0.00110722 
175 2 0 1 1.56278 2.63193 5.20355 9.42999 0.00823148 0.0261944 -0.0140619 -0.0007317 0.0401997 2.53855e-06 
176 2 0 -1 1.56225 2.6316 5.20351 9.43004 0.0106199 0.0278803 -0.0146205 -0.0023218 0.0403561 2.95412e-06 
201 1 1 0 0 4.38162 4.9981 5.9378 0.0145518 0.00707764 -0.00663758 0 -0.499726 0.000164441 
202 1 1 0 0 4.07701 6.34212 5.97998 0.0309778 0.0151381 0.0174445 0 -0.484897 0.000802616 
203 2 0 1 1.62948 4.24504 5.63831 5.97711 0.0203782 0.02034 0.0035953 0.00360618 0.0231883 2.27092e-06 
204 2 0 -1 1.62956 4.24506 5.63845 5.97713 0.0213703 0.0175196 0.00343188 0.00395285 0.0231754 2.09881e-06 
345 1 1 0 0 9.4664 -0.0640872 7.38805 0.022775 -0.102773 -0.0592723 0 -0.49892 0.00784514 
789 1 1 0 0 7.78699 1.33581 9.31096 0.0606439 0.00410714 0.0328606 0 -0.499608 0.00256647 
728 2 0 -1 1.60113 9.14327 3.57149 8.0128 -0.058107 0.00846454 -0.0157003 -0.00157934 0.0394091 9.85632e-06 
217 1 1 0 0 6.2185 5.19576 8.44077 -0.0325391 0.00636807 0.077461 0 -0.496897 0.00381638 
214 1 1 0 0 8.27842 4.95329 5.1755 -0.0284493 -0.0437066 -0.0346872 0 -0.500632 0.00210873 
17 1 1 0 0 1.81722 8.35891 5.58868 -0.00847249 -0.0211645 -0.0109664 0 -0.500877 0.000344024 
409 1 1 0 0 1.05718 2.45282 7.05826 -0.0299428 -0.0686263 0.0190097 0 -0.518531 0.00320786 
410 1 1 0 0 1.73997 3.47856 7.58168 -0.0607208 -0.0362476 -0.013299 0 -0.49094 0.00278332 
411 2 0 1 1.56505 1.36706 2.91554 7.29659 -0.032056 -0.0453129 0.00184728 0.00149438 0.045816 8.22842e-06 
412 2 0 -1 1.56567 1.36705 2.9155 7.2966 -0.0308506 -0.0445249 0.0012758 -0.00647642 0.0456375 7.91213e-06 
465 1 1 0 0 4.03579 2.1098 8.44432 0.0205367 -0.0387178 0.0470014 0 -0.524055 0.00222007 
466 1 1 0 0 5.03245 2.82248 8.97827 0.0317391 -0.0192387 0.000872301 0 -0.496033 0.000740886 
467 2 0 1 1.57021 4.48206 2.42251 8.69452 0.0094911 -0.0163363 0.0196798 0.00780554 0.0508723 2.10634e-06 
468 2 0 -1 1.57037 4.48207 2.42251 8.69452 0.01245 -0.0149618 0.0205637 0.000886381 0.0508271 2.1393e-06 
808 2 0 -1 1.58527 1.91727 8.45039 8.77348 -0.0601319 -0.0254162 -0.0408686 -0.00888251 0.039316 1.59752e-05 
807 2 0 1 1.58493 1.91735 8.45036 8.7735 -0.0598504 -0.0253439 -0.0410235 -0.00733846 0.0394088 1.58591e-05 
725 1 1 0 0 9.31945 3.08505 7.54758 -0.0544314 0.0336942 -0.0105001 0 -0.500283 0.00226219 
220 2 0 -1 1.58273 6.17832 5.17688 9.13239 -0.0555865 0.00172296 0.0574852 -0.00653475 0.0366781 1.71436e-05 
688 2 0 -1 1.59737 4.82486 8.89457 6.98825 0.0124927 0.0769567 0.0356906 0.00819708 0.0279363 1.97386e-05 
727 2 0 1 1.60119 9.14339 3.57136 8.01269 -0.0582277 0.0106912 -0.013458 -0.00675288 0.0393884 9.91935e-06 
219 2 0 1 1.58264 6.17844 5.17688 9.13248 -0.0571159 0.000830102 0.0566016 -0.00756439 0.0366941 1.73573e-05 
581 1 1 0 0 6.27122 1.69779 6.34797 0.0504539 -0.042429 0.0582195 0 -0.504075 0.00415814 
582 1 1 0 0 7.15501 2.33641 5.54042 0.0296841 -0.0656624 0.0182966 0 -0.497093 0.0029713 
583 2 0 1 1.59052 6.72084 1.97134 5.94051 0.0319731 -0.0529501 0.0348103 0.00402822 0.0371442 1.34652e-05 
584 2 0 -1 1.59044 6.72067 1.97121 5.94073 0.0325824 -0.0522347 0.0350419 0.00285354 0.0371638 1.33965e-05 
174 1 1 0 0 2.03158 5.22067 9.71423 0.0135606 0.0315894 -0.0595395 0 -0.496818 0.00254087 
806 1 1 0 0 1.37742 8.65643 9.16937 -0.0694361 -0.0168062 -0.0590806 0 -0.498233 0.00461991 
218 1 1 0 0 6.21423 5.20798 9.78828 -0.0611796 0.01378 0.0754623 0 -0.501698 0.00517523 
477 1 1 0 0 8.30424 9.92104 5.16275 0.0801233 0.0325773 0.0464928 0 -0.515708 0.0051834 
726 1 1 0 0 8.96689 4.03356 8.45219 -0.0694945 0.021238 -0.00416979 0 -0.510272 0.00284791 
792 2 0 -1 1.58343 7.34993 1.14155 9.82028 0.0502094 -0.00652771 0.0374773 0.00500478 0.0394653 1.06309e-05 
791 2 0 1 1.58328 7.34979 1.14141 9.82041 0.0500548 -0.00661263 0.0353288 0.00903494 0.0395006 1.02886e-05 
482 1 1 0 0 2.92749 2.27543 5.32686 -0.0293997 0.0147967 -0.0259803 0 -0.505227 0.000945158 
483 2 0 1 1.58043 3.55396 2.36656 4.98533 -0.0345794 0.00802021 -0.0642446 -0.00514003 0.0517171 1.4418e-05 
484 2 0 -1 1.58043 3.55402 2.36667 4.98525 -0.0304409 0.00934056 -0.0666202 -0.00338705 0.051721 1.45607e-05 
19 2 0 1 1.56968 2.17288 8.4367 5.03309 -0.0422854 -0.0178996 -0.0109437 0.00278561 0.038918 5.95691e-06 
20 2 0 -1 1.56987 2.17296 8.43671 5.03294 -0.0413423 -0.0183468 -0.0103371 -0.00548661 0.0388826 5.80008e-06 
256 2 0 -1 1.62156 1.38305 0.36275 14.0904 -0.00200197 -0.012271 -0.042888 0.00383542 0.0316986 5.34618e-06 
154 1 1 0 0 6.95867 9.13869 10.5728 -0.066092 -0.00286067 -0.0784733 0 -0.488856 0.00566279 
637 1 1 0 0 8.82087 3.12699 13.2333 0.00076699 0.0217584 -0.0616848 0 -0.499433 0.0023002 
639 2 0 1 1.59952 8.72574 2.9871 12.5879 0.00337897 0.0165194 -0.0633724 0.00026996 0.0313908 1.14668e-05 
638 1 1 0 0 8.53718 2.80659 11.9427 0.0178876 0.00939266 -0.0663526 0 -0.493728 0.00258609 
700 2 0 -1 1.61776 1.78467 1.99879 10.7431 -0.0321579 -0.10861 -0.0374299 0.00540959 0.0304748 3.8005e-05 
803 2 0 1 1.56487 6.07771 9.38366 14.5982 -0.00529911 0.0235093 -0.00775906 0.00319494 0.0595909 1.72952e-06 
255 2 0 1 1.62167 1.38294 0.362677 14.0904 -0.00287955 -0.0137814 -0.0426549 0.00312458 0.0316684 5.39948e-06 
156 2 0 -1 1.63081 6.39744 8.67605 10.7495 -0.0590752 -0.00877708 -0.0720451 0.0131355 0.0317979 2.36961e-05 
155 2 0 1 1.63088 6.39752 8.676 10.7495 -0.0581472 -0.00881002 -0.0718868 0.0138227 0.0317821 2.33839e-05 
182 1 1 0 0 0.00583085 5.5693 11.5534 -0.0113073 0.0181173 -0.0110832 0 -0.513717 0.000311204 
612 2 0 -1 1.56626 0.155588 9.58776 11.3916 -0.037891 -0.0679233 -0.00158794 -0.0106459 0.0527497 1.63634e-05 
816 2 0 -1 1.5635 9.10555 8.82169 12.8828 0.0591771 -0.01369 0.0178392 -0.00434052 0.0616472 1.07236e-05 
245 1 1 0 0 2.59383 7.24801 11.3952 0.0503937 -0.0149047 -0.0143066 0 -0.486893 0.00159457 
246 1 1 0 0 3.0743 7.45094 12.6567 0.00449911 -0.031681 0.00992039 0 -0.514223 0.000603316 
247 2 0 1 1.61516 2.86328 7.36489 12.0855 0.0219511 -0.0171103 -0.0155152 -0.00632728 0.0339105 2.78739e-06 
248 2 0 -1 1.61507 2.86318 7.36484 12.0853 0.0217815 -0.0188742 -0.0177324 -0.00374452 0.0339263 3.08138e-06 
611 2 0 1 1.56646 0.155516 9.58773 11.3916 -0.0381422 -0.0675136 -0.00129856 -0.00128229 0.0526937 1.60408e-05 
697 1 1 0 0 2.19682 2.47295 10.3403 -0.00529421 -0.0851577 -0.0119197 0 -0.485409 0.00398968 
267 2 0 1 1.61579 0.230585 8.03695 14.5234 -0.0117025 0.00157174 -0.0465756 -0.00105964 0.0338824 6.15826e-06 
268 2 0 -1 1.61568 0.230456 8.03687 14.5234 -0.0108687 0.000743947 -0.0480242 -0.0040639 0.0339042 6.49913e-06 
273 1 1 0 0 5.65731 1.11871 13.4522 -0.00287102 -0.000214017 -0.0168317 0 -0.497235 0.000156748 
274 1 1 0 0 5.73179 2.3116 12.816 -0.00187598 -0.0414495 -0.0825642 0 -0.515711 0.00458985 
275 2 0 1 1.59299 5.66376 1.77507 13.1443 -0.00263499 -0.0161442 -0.0347289 -0.00621714 0.046167 4.00676e-06 
276 2 0 -1 1.59309 5.66383 1.77521 13.1443 -0.00310512 -0.016449 -0.0333027 -0.00801573 0.0461355 3.83292e-06 
640 2 0 -1 1.59985 8.72586 2.98725 12.5881 0.0034385 0.017711 -0.0637127 0.000166794 0.0313 1.16918e-05 
699 2 0 1 1.61815 1.78478 1.99888 10.743 -0.0322488 -0.107728 -0.0378784 0.0112833 0.0303801 3.77981e-05 
814 1 1 0 0 9.45856 9.36431 12.844 0.0865178 -0.0242423 0.0304738 0 -0.523959 0.00483887 
572 2 0 -1 1.54942 8.83029 5.91682 10.9641 -0.0302559 -0.0309648 -0.0366327 0.00182291 0.0621381 8.58239e-06 
813 1 1 0 0 8.72092 8.26122 12.925 0.0465831 0.00505209 0.0240875 0 -0.518622 0.00149209 
790 1 1 0 0 6.89262 0.941073 10.2433 0.0649571 0.00181791 0.0409404 0 -0.504972 0.00317094 
265 1 1 0 0 0.590386 8.05235 13.8998 -0.0259136 -0.00476022 -0.061412 0 -0.495914 0.0024005 
815 2 0 1 1.56368 9.10537 8.82133 12.8828 0.0569583 -0.0156989 0.0180825 0.0112853 0.0615988 1.04343e-05 
253 1 1 0 0 1.5662 0.981586 14.1476 0.0131238 -0.00516051 -0.0508296 0 -0.507345 0.00149575 
802 1 1 0 0 6.28155 9.75014 14.0339 -0.0121524 0.0147371 0.0179525 0 -0.513169 0.000369382 
801 1 1 0 0 5.90606 9.08401 15.12 -0.0101579 0.0107149 0.00808895 0 -0.523647 0.000152355 
421 1 1 0 0 2.0168 3.61645 12.9673 0.027579 0.0426382 0.100808 0 -0.501107 0.00684884 
422 1 1 0 0 1.93712 4.35272 14.1378 0.00519739 0.033892 0.115306 0 -0.505152 0.00777903 
423 2 0 1 1.63423 1.99288 3.99182 13.5524 0.00550091 0.0158966 0.0772153 0.012715 0.0330175 1.69756e-05 
424 2 0 -1 1.63399 1.99288 3.99207 13.5527 0.00515919 0.0177658 0.0791557 0.0109331 0.0330727 1.78585e-05 
513 1 1 0 0 5.25574 5.78603 12.815 -0.00531346 0.0122163 0.0383193 0 -0.505024 0.000884727 
514 1 1 0 0 6.60922 5.62745 12.9145 -0.00762121 0.0200695 0.0569873 0 -0.49055 0.00199347 
515 2 0 1 1.61441 5.89488 5.69123 12.8477 -0.0303589 0.022412 0.0408994 -0.00303578 0.0298707 8.27563e-06 
516 2 0 -1 1.61442 5.89491 5.69124 12.8477 -0.0260856 0.0219816 0.0407936 0.000346964 0.0298648 7.5403e-06 
698 1 1 0 0 1.41091 1.59448 11.0793 -0.0368472 -0.123913 -0.0717021 0 -0.509974 0.0117473 
153 1 1 0 0 5.95602 8.25716 10.9543 -0.0697227 -0.0224899 -0.0727667 0 -0.512019 0.0057314 
804 2 0 -1 1.56506 6.07781 9.3841 14.5976 -0.00718615 0.0223944 -0.00705013 -0.0064144 0.0595206 1.68975e-06 
569 1 1 0 0 8.46286 6.21553 10.5604 -0.0498913 -0.046419 -0.027461 0 -0.525647 0.00290169 
570 1 1 0 0 9.25015 5.59088 11.4117 -0.014008 -0.0123565 -0.04723 0 -0.511494 0.00138666 
571 2 0 1 1.54937 8.83071 5.91646 10.9646 -0.029116 -0.0328013 -0.0334964 0.00067355 0.062157 8.12199e-06 
646 1 1 0 0 5.91369 7.28816 17.6869 -0.0387316 0.0564417 0.0299513 0 -0.507528 0.00300109 
817 1 1 0 0 8.52544 5.80055 18.3147 -0.122344 0.0365416 -0.0518714 0 -0.508213 0.0102102 
350 1 1 0 0 0.870413 4.4069 16.9788 0.0686037 0.0595233 0.0727902 0 -0.518582 0.00728271 
351 2 0 1 1.58931 0.373997 4.40205 16.6222 0.0428968 0.0847134 0.0790326 0.00119627 0.0443731 4.06997e-05 
730 1 1 0 0 9.98451 1.7606 19.1558 -0.0447521 -0.0427233 0.0552306 0 -0.509684 0.00369753 
84 2 0 -1 1.6167 3.65059 6.45628 15.9205 -0.0868383 0.00895574 -0.0609735 0.000537003 0.0259096 3.02349e-05 
820 2 0 -1 1.56732 8.36714 5.18037 18.5793 -0.109824 0.0310468 -0.056223 -0.00374532 0.0550241 4.31874e-05 
819 2 0 1 1.56729 8.36728 5.1809 18.5791 -0.108805 0.0298363 -0.0564299 -0.00504756 0.0550564 4.24818e-05 
818 1 1 0 0 8.15451 4.65385 18.8779 -0.126384 0.0326931 -0.0944327 0 -0.517741 0.0139545 
89 1 1 0 0 0.971248 6.02346 20.133 0.0125895 0.0199631 -0.0100853 0 -0.498409 0.000354104 
763 2 0 1 1.58222 6.71394 2.29466 18.8307 -0.0497187 -0.017427 -0.0290867 0.006747 0.0425207 9.748e-06 
91 2 0 1 1.58732 1.1896 5.40157 19.982 0.0102364 0.0360652 -0.0340828 -0.00110742 0.0371117 6.8475e-06 
92 2 0 -1 1.58752 1.18994 5.40054 19.9817 0.0106905 0.0334644 -0.0348273 -0.00311773 0.0370631 6.54444e-06 
645 1 1 0 0 6.96972 8.08104 17.4851 -0.00826252 0.0367527 0.0936107 0 -0.510779 0.00547335 
722 1 1 0 0 5.2629 0.653893 16.2286 -0.0155255 0.0270198 -0.0113122 0 -0.50656 0.000590812 
352 2 0 -1 1.58955 0.374461 4.40214 16.6227 0.0420328 0.0843204 0.0788672 -0.00135972 0.044322 4.0258e-05 
90 1 1 0 0 1.47987 4.80522 19.8536 0.0301907 0.0450139 -0.0858419 0 -0.499592 0.00554032 
366 1 1 0 0 6.29439 4.15396 16.3745 0.009825 0.101932 0.0658427 0 -0.504609 0.00796758 
367 2 0 1 1.59267 5.97244 3.82667 15.8823 0.00278279 0.0784224 0.0503409 -0.00330519 0.0369562 2.31985e-05 
368 2 0 -1 1.59261 5.9726 3.8269 15.8827 0.00440477 0.0793917 0.0522663 -0.00207377 0.0369708 2.4151e-05 
461 1 1 0 0 0.185504 9.57523 17.8678 0.0528793 0.0817677 0.00188692 0 -0.50882 0.00509908 
781 1 1 0 0 2.364 9.73099 15.5479 0.048192 0.0288885 -0.00573437 0 -0.523227 0.00171474 
840 2 0 -1 1.57802 0.183585 1.38563 18.8534 -0.00609156 -0.0125402 0.0409989 0.00393731 0.0398307 5.03129e-06 
372 2 0 -1 1.5739 8.96006 0.75599 15.9184 0.0215196 -0.0266547 0.0353702 0.00599881 0.0481406 6.53703e-06 
783 2 0 1 1.55456 2.96743 9.89747 15.4827 0.0300189 0.0259389 -0.0155386 -0.0116083 0.0592067 5.11013e-06 
648 2 0 -1 1.56604 6.43538 7.71409 17.5961 -0.0356961 0.0446113 0.0398636 0.00781593 0.0495507 1.30636e-05 
647 2 0 1 1.56673 6.43571 7.71428 17.5961 -0.0377775 0.0432839 0.0396932 0.00725004 0.0493803 1.31071e-05 
589 1 1 0 0 3.66059 2.54178 17.0828 -0.0175241 -0.0174027 -0.0271889 0 -0.495148 0.000725256 
590 1 1 0 0 2.39581 2.06447 17.0772 -0.0147415 -0.018697 -0.0458446 0 -0.493949 0.00143452 
591 2 0 1 1.59855 3.0436 2.29591 17.0812 -0.0282283 -0.0211173 -0.0274375 -0.000309877 0.0292585 5.3213e-06 
592 2 0 -1 1.59871 3.04351 2.2959 17.0812 -0.0270915 -0.0212384 -0.0270638 0.00161244 0.029219 5.11799e-06 
617 1 1 0 0 2.96982 9.20795 18.3127 -0.071679 0.0657023 0.000141372 0 -0.484897 0.00508239 
618 1 1 0 0 3.18788 8.20336 19.1974 -0.0543286 0.0683724 -0.00112687 0 -0.490515 0.00410026 
619 2 0 1 1.60101 3.04403 8.69703 18.7608 -0.0436199 0.0508859 0.00675411 0.00129313 0.0224297 1.21028e-05 
620 2 0 -1 1.60083 3.04395 8.69724 18.7606 -0.043847 0.0524925 0.00535627 0.00265662 0.0224748 1.25642e-05 
82 1 1 0 0 3.26614 6.96329 16.2101 -0.0846745 0.0160458 -0.0665602 0 -0.493506 0.00637403 
416 2 0 -1 1.60162 4.29344 4.98923 19.1069 -0.0381103 0.00801623 -0.0165922 0.00108156 0.0306345 4.78047e-06 
784 2 0 -1 1.55415 2.96707 9.89726 15.4827 0.0255173 0.0239656 -0.0140796 -0.0123187 0.0593101 4.09973e-06 
83 2 0 1 1.61673 3.65048 6.45645 15.9205 -0.0877583 0.0094092 -0.0615778 -0.00073811 0.0259118 3.08834e-05 
81 1 1 0 0 4.05371 5.99975 15.6203 -0.103537 -0.00536619 -0.0760498 0 -0.495051 0.00888702 
782 1 1 0 0 3.63592 10.0648 15.3961 0.0407369 0.0235799 -0.0324308 0 -0.511886 0.00175633 
381 1 1 0 0 10.0067 3.47532 15.9427 0.00954909 0.0666878 -0.0294513 0 -0.485719 0.00290591 
71 2 0 1 1.58743 9.85734 8.31833 19.0189 -0.0446832 -0.0434224 -0.0570541 -0.00103069 0.0365764 1.90332e-05 
41 1 1 0 0 8.80891 9.87539 15.5404 -0.0711037 -0.0592391 -0.102834 0 -0.516182 0.0102887 
764 2 0 -1 1.58202 6.71404 2.29431 18.8302 -0.0505091 -0.0167388 -0.0257418 0.00383634 0.0425794 9.34594e-06 
761 1 1 0 0 6.73551 2.041 18.1813 -0.0394713 -0.0146608 -0.0779972 0 -0.500008 0.00422328 
762 1 1 0 0 6.68748 2.56014 19.4102 -0.0679975 -0.0323941 -0.0743614 0 -0.507881 0.00602202 
413 1 1 0 0 3.99371 5.03245 18.4747 -0.0310223 0.0236726 0.0032813 0 -0.488102 0.000824357 
70 1 1 0 0 9.48702 8.67776 19.4359 -0.0651609 -0.0553493 -0.0771227 0 -0.504658 0.00712655 
838 1 1 0 0 0.641683 1.05965 19.2036 0.0217242 -0.0257226 0.0720127 0 -0.504304 0.00339702 
414 1 1 0 0 4.51851 4.92483 19.7165 -0.0333282 -0.00309301 -0.00311746 0 -0.501965 0.000607464 
415 2 0 1 1.60155 4.29295 4.98931 19.1061 -0.0398129 0.00733432 -0.0197875 0.000172074 0.0306418 5.414e-06 
365 1 1 0 0 5.67911 3.50305 15.3448 0.0264747 0.0975055 0.0666585 0 -0.499663 0.007876 
839 2 0 1 1.578 0.183533 1.38567 18.8533 -0.00822344 -0.0116342 0.03993 0.00306592 0.0398267 4.8114e-06 
369 1 1 0 0 8.31883 0.757611 15.7067 0.0226397 -0.0116438 0.0544042 0 -0.504842 0.00193946 
370 1 1 0 0 9.59419 0.746372 16.1053 0.024685 -0.0495494 0.0382551 0 -0.512267 0.00243401 
371 2 0 1 1.57391 8.95985 0.756012 15.9184 0.0231194 -0.0267537 0.0355978 0.0098539 0.04815 6.90684e-06 
72 2 0 -1 1.58734 9.85713 8.31851 19.0191 -0.0456614 -0.0432926 -0.0559835 -0.00252458 0.0365963 1.89267e-05 
724 2 0 -1 1.55885 5.65424 0.20218 16.4018 -0.00201771 0.0387096 -0.00351007 0.00825429 0.03998 4.17544e-06 
723 2 0 1 1.55903 5.65437 0.202061 16.4019 -0.0025701 0.0394225 -0.00393427 0.0056611 0.039928 4.26696e-06 
788 2 0 -1 1.56415 8.32557 6.48609 15.2352 -0.022503 -0.0395971 -0.0202691 -0.00327756 0.0576717 6.64796e-06 
787 2 0 1 1.56471 8.32534 6.48617 15.2353 -0.0199693 -0.0402291 -0.0211602 -0.000913939 0.0575333 6.57417e-06 
785 1 1 0 0 7.69184 6.67511 15.2262 -0.0503429 -0.033941 -0.0183601 0 -0.515865 0.00216284 
786 1 1 0 0 8.97201 6.33496 15.3121 -0.0498678 -0.0370794 -0.0230386 0 -0.516668 0.00236117 
496 2 0 -1 1.56031 8.53981 10.0633 1.94932 -0.0275767 -0.0611199 0.0516475 -0.0202664 0.0661681 1.99226e-05 
628 2 0 -1 1.57359 3.98739 19.0012 4.95585 0.00355933 0.0430982 -0.00713458 0.00952917 0.0490208 5.30387e-06 
627 2 0 1 1.57386 3.98735 19.0012 4.9559 0.00390119 0.0418041 -0.00774148 0.00927523 0.0489536 5.03225e-06 
97 1 1 0 0 0.628934 17.039 4.85487 -0.0375712 -0.0641065 -0.0245371 0 -0.49762 0.0032916 
495 2 0 1 1.5597 8.5401 10.0632 1.94966 -0.0283025 -0.0600997 0.0494227 -0.00851405 0.0663224 1.8425e-05 
606 1 1 0 0 9.65409 13.9766 0.499677 -0.0230913 -0.00157489 -0.0272644 0 -0.522439 0.000687549 
321 1 1 0 0 4.67204 10.7347 3.32241 0.026563 -0.0487188 -0.00126964 0 -0.517322 0.00165605 
322 1 1 0 0 5.30973 11.136 4.4181 -0.00286297 -0.0518206 0.0034036 0 -0.500626 0.00145416 
323 2 0 1 1.56719 4.97631 10.8731 3.84843 0.0276683 -0.0441438 0.0209003 -0.00563297 0.0499755 8.46548e-06 
324 2 0 -1 1.56718 4.97628 10.8732 3.84856 0.027967 -0.0446565 0.0209553 -0.00639748 0.0499846 8.65571e-06 
385 1 1 0 0 3.8955 17.1409 2.42698 -0.08886 0.0102594 0.0396533 0 -0.468841 0.00514639 
386 1 1 0 0 4.01034 15.7639 2.3435 -0.104409 -0.00534761 0.0441629 0 -0.493501 0.00692379 
387 2 0 1 1.62889 3.9705 16.3982 2.39714 -0.081056 -0.00186655 0.040246 0.00497599 0.0116927 2.18964e-05 
388 2 0 -1 1.62889 3.97058 16.398 2.39708 -0.0814703 -0.00143119 0.0405025 0.00516145 0.0116883 2.21311e-05 
389 1 1 0 0 5.31132 12.7433 0.957909 0.0938205 0.0400484 0.0409995 0 -0.513032 0.00649746 
390 1 1 0 0 4.17863 12.3318 0.304682 0.0992651 0.0323183 0.0312169 0 -0.489939 0.0063821 
391 2 0 1 1.61821 4.78758 12.555 0.659112 0.0616146 0.00700707 0.0242237 0.00382933 0.0335896 1.18476e-05 
392 2 0 -1 1.61792 4.78711 12.5549 0.658886 0.0625621 0.00840483 0.0252642 -0.000892214 0.0336613 1.23283e-05 
405 1 1 0 0 7.11886 18.4264 4.51381 0.0452102 -0.0487837 0.00690838 0 -0.507363 0.00240369 
557 1 1 0 0 0.700268 19.8513 4.94203 0.0552202 0.0762973 0.06447 0 -0.481416 0.00700266 
407 2 0 1 1.56646 7.2588 19.0562 4.77395 0.0707093 -0.0371929 0.0064982 0.00171821 0.0520034 1.71387e-05 
408 2 0 -1 1.56623 7.25892 19.0563 4.77402 0.0712891 -0.03722 0.00711916 0.00167949 0.0520589 1.73858e-05 
433 1 1 0 0 7.12171 12.7042 3.56888 -0.0599254 -0.0861482 -6.66037e-05 0 -0.513676 0.00591984 
434 1 1 0 0 7.05138 14.036 3.59394 -0.0411954 -0.092828 0.0270806 0 -0.505233 0.00593858 
435 2 0 1 1.56231 7.0994 13.3452 3.56192 -0.0504344 -0.0686502 0.00831781 0.0014636 0.0497819 1.95377e-05 
436 2 0 -1 1.56174 7.0994 13.3453 3.56189 -0.0506984 -0.0698781 0.00973386 0.00272231 0.0499204 2.01411e-05 
99 2 0 1 1.60177 0.881052 17.0218 4.26022 -0.0279608 -0.0254274 -0.00636775 0.00405347 0.0259362 3.94959e-06 
442 1 1 0 0 2.28413 10.6982 2.09215 0.0338884 -0.0713138 0.0217793 0 -0.503635 0.00360613 
443 2 0 1 1.52102 2.53978 10.1114 1.82923 0.0255922 -0.0705498 0.0410878 0.0107948 0.0533703 1.97525e-05 
444 2 0 -1 1.5218 2.53964 10.1113 1.82926 0.0259836 -0.0709299 0.0412427 0.00612577 0.0531377 1.98257e-05 
453 1 1 0 0 6.66768 16.5667 1.9876 0.0665704 0.0552679 0.0211598 0 -0.499091 0.00426489 
454 1 1 0 0 8.02855 16.6268 2.0302 0.0749793 0.0480238 0.0389937 0 -0.506675 0.00507917 
455 2 0 1 1.60193 7.35186 16.628 1.99677 0.0398628 0.0429311 0.0229686 0.0202461 0.0373576 1.1378e-05 
456 2 0 -1 1.60168 7.35194 16.6281 1.99667 0.0371117 0.041873 0.0231055 0.0239562 0.0374125 1.09188e-05 
607 2 0 1 1.57562 9.32362 13.5834 0.870762 -0.0348071 -0.00235292 -0.0196285 0.00208342 0.0529526 4.28124e-06 
485 1 1 0 0 1.20474 13.3383 2.15071 -0.0246414 0.0468326 0.028107 0 -0.480094 0.00193008 
486 1 1 0 0 1.84478 13.0631 3.35701 -0.0191543 0.115076 0.0621044 0 -0.506775 0.00938905 
487 2 0 1 1.62682 1.56797 13.1897 2.80665 -0.0166257 0.0915289 0.0459923 0.0158263 0.0254243 2.92164e-05 
488 2 0 -1 1.62675 1.56799 13.1896 2.80673 -0.0164004 0.0921911 0.0450478 0.0166042 0.025449 2.93421e-05 
489 1 1 0 0 1.05445 18.8946 1.94167 -0.0245591 -0.103071 0.00879033 0 -0.4919 0.00607655 
490 1 1 0 0 2.1831 18.9624 1.16635 -0.0348909 -0.12562 -0.0161759 0 -0.501012 0.0092778 
491 2 0 1 1.61168 1.64265 18.9099 1.53819 -0.0212195 -0.0973123 -0.00854661 0.00633355 0.0304495 2.67258e-05 
492 2 0 -1 1.61163 1.64287 18.91 1.538 -0.0206131 -0.0974928 -0.00946521 0.00736794 0.0304595 2.68245e-05 
64 2 0 -1 1.55547 9.84469 15.1573 3.76598 0.0267289 -0.0423957 -0.0443856 -0.00451671 0.0624592 1.19915e-05 
605 1 1 0 0 8.89335 13.1746 1.23247 -0.0414805 0.0165923 -0.0192173 0 -0.504055 0.00127144 
100 2 0 -1 1.60179 0.881171 17.0218 4.25981 -0.0282901 -0.0243496 -0.00625773 0.00516562 0.0259303 3.87273e-06 
98 1 1 0 0 1.20132 17.0054 3.61384 0.00711751 -0.0125025 -0.0158057 0 -0.483869 0.000245549 
745 1 1 0 0 9.53745 20.0003 1.26664 -0.00614109 -0.0217102 0.0183894 0 -0.498586 0.000455423 
625 1 1 0 0 3.79648 18.4226 4.99304 0.0348109 0.0372466 -0.0449851 0 -0.516062 0.00248498 
493 1 1 0 0 8.00709 10.1107 1.4939 -0.0312549 -0.0681026 0.0572071 0 -0.512421 0.00477749 
626 1 1 0 0 4.24263 19.678 4.93161 -0.020974 0.0623119 0.00653516 0 -0.50125 0.00234663 
695 2 0 1 1.61187 0.159167 15.0427 0.314929 -0.0229688 0.0348006 -0.0132971 -0.0162383 0.0215918 5.63476e-06 
694 1 1 0 0 0.642081 15.4025 0.267419 -0.0352165 0.0429818 0.00306408 0 -0.503993 0.00166481 
696 2 0 -1 1.61197 0.158888 15.0424 0.314936 -0.0227572 0.0336139 -0.0131088 -0.0171872 0.021554 5.44265e-06 
63 2 0 1 1.55607 9.84458 15.157 3.76585 0.0278233 -0.0428208 -0.0438571 -0.00372862 0.062309 1.211e-05 
406 1 1 0 0 7.24466 19.6474 5.04084 0.0856216 -0.0479957 0.021173 0 -0.512535 0.00542011 
61 1 1 0 0 9.67822 14.512 3.4639 0.0309331 -0.0454808 -0.0158066 0 -0.506531 0.0017606 
62 1 1 0 0 9.95524 15.6942 3.99341 0.0362746 -0.0366244 -0.0622433 0 -0.531984 0.00351098 
608 2 0 -1 1.57548 9.32377 13.5835 0.870533 -0.0331055 -0.00174198 -0.0170705 -0.00935463 0.0529936 3.88243e-06 
49 1 1 0 0 2.49398 11.1902 6.25931 -0.00330382 0.0311554 0.0422309 0 -0.512239 0.00148634 
50 1 1 0 0 2.31913 12.3184 6.98093 -0.00273376 0.035754 0.031974 0 -0.508489 0.00124076 
51 2 0 1 1.60054 2.39781 11.738 6.61521 -0.00285587 0.0315439 0.0345684 -0.0106081 0.0445289 6.08625e-06 
52 2 0 -1 1.60098 2.39772 11.7381 6.61536 -0.00211534 0.0334683 0.0355477 -0.0132912 0.0444242 6.72137e-06 
65 1 1 0 0 9.11455 13.4871 6.18054 -0.0859366 -0.0426144 -0.0617629 0 -0.538219 0.00699664 
67 2 0 1 1.55804 9.23707 13.4761 6.7535 -0.079711 -0.0255487 -0.0357602 -0.003537 0.0667146 2.21174e-05 
68 2 0 -1 1.55741 9.23708 13.4761 6.75365 -0.0798097 -0.0259729 -0.0342422 5.41829e-05 0.0668713 2.19093e-05 
676 2 0 -1 1.59787 4.44872 11.9239 9.67739 -0.0132809 -0.0416254 -0.0352647 0.00563286 0.0233038 8.46978e-06 
479 2 0 1 1.57795 8.17413 10.4485 5.54229 0.0598477 0.005226 0.028543 -0.00749134 0.0508409 1.19079e-05 
262 1 1 0 0 1.42093 19.3895 7.81385 0.0073242 0.026406 0.0470341 0 -0.511539 0.00159283 
127 2 0 1 1.58567 8.98174 16.9346 6.91721 -0.0238332 0.0100972 0.0426928 -0.00607078 0.0445363 6.72017e-06 
836 2 0 -1 1.61418 5.82211 18.7501 8.0888 0.00745307 -0.0549658 0.028772 0.0115707 0.036099 1.06791e-05 
835 2 0 1 1.61444 5.82209 18.7501 8.08868 0.00782829 -0.0568472 0.0255803 0.0134373 0.0360364 1.08861e-05 
834 1 1 0 0 5.83619 19.0748 8.75405 0.0142647 -0.0606188 -0.0024125 0 -0.492167 0.00208782 
66 1 1 0 0 9.48408 13.4298 7.45679 -0.0676373 0.016869 -0.0737713 0 -0.507313 0.00553764 
520 2 0 -1 1.61936 6.67422 14.5866 9.04797 0.0295077 0.0648801 -0.0157507 0.00664352 0.0366311 1.42956e-05 